  ___ ___ ___ _ _ _
 |   |   |_  | | | |
 | | | | | . | | | |
 |__ |  _|___|_____| - 25.7.1b1
 |___|_|

User:   s260438@n-62-29-31
Date:   Sat May  2 09:13:44 2026
Arch:   x86_64
Pid:    156257
CWD:    /zhome/ae/1/229651/MnI2_SOC
Python: 3.11.7
gpaw:   /zhome/ae/1/229651/venv/gpaw/gpaw (fd205d5876)
_gpaw:  /zhome/ae/1/229651/venv/gpaw/
        _gpaw.cpython-311-x86_64-linux-gnu.so (fd205d5876)
ase:    /zhome/ae/1/229651/venv/ase/ase (version 3.28.0b1-536df4049d)
numpy:  /zhome/ae/1/229651/venv/lib/python3.11/site-packages/numpy (version 2.4.2)
scipy:  /zhome/ae/1/229651/venv/lib/python3.11/site-packages/scipy (version 1.17.0)
libxc:  6.1.0
units:  Angstrom and eV
cores: 16
OpenMP: False
OMP_NUM_THREADS: 1

input parameters:
  mode=PW(ecut=600),
  convergence={'density': 1e-09, 'energy': 5e-07, 'eigenstates': 1e-10},
  kpts=MonkhorstPack(size=(12, 12, 1), gamma=True),
  magmoms=array([[ 1.35074009e-17,  4.50000000e+00,  0.00000000e+00],
         [ 0.00000000e+00,  0.00000000e+00,  0.00000000e+00],
         [ 0.00000000e+00,  0.00000000e+00,  0.00000000e+00],
         [ 3.89711432e+00, -2.25000000e+00,  0.00000000e+00],
         [ 0.00000000e+00,  0.00000000e+00,  0.00000000e+00],
         [ 0.00000000e+00,  0.00000000e+00,  0.00000000e+00],
         [-3.89711432e+00, -2.25000000e+00,  0.00000000e+00],
         [ 0.00000000e+00,  0.00000000e+00,  0.00000000e+00],
         [ 0.00000000e+00,  0.00000000e+00,  0.00000000e+00]]),
  maxiter=200,
  mixer=Mixer(backend='pulay', beta=0.05, method='sum', nmaxold=5, weight=100),
  occupations=Occupations(name='fermi-dirac', width=0.01, fixmagmom=False),
  parallel={'domain': 4, 'kpt': 4, 'band': 1},
  soc=False,
  spinpol=True,
  symmetry=Symmetry(point_group=False, time_reversal=False),
  xc=XC(name='LDA')

environment variables:
  GPAW_CPUPY=False,
  GPAW_DEBUG=False,
  GPAW_INITIALIZE_MPI=True,
  GPAW_MPI_BACKEND='cgpaw',
  GPAW_NEW=0,
  GPAW_NO_C_EXTENSION=False,
  GPAW_NO_GPU_MPI=False,
  GPAW_TRACE=False,
  GPAW_USE_GPUS=False

Diagonalizing LCAO Hamiltonian
Converting LCAO to pw mode
                                       
                                       
                                       
                                       
                    I                  
                                       
             IMn       IMn             
                                       
                 Mn                    
        I         I          I         
                                       
                                       
                                       
                                       
                                       

Atomic positions and initial magnetic moments

Positions:
   0 Mn    -0.000000    0.000000    9.013716    ( 0.0000,  4.5000,  0.0000)
   1 I      2.082858    1.202539   10.663250    ( 0.0000,  0.0000,  0.0000)
   2 I     -0.000000    2.405077    7.364181    ( 0.0000,  0.0000,  0.0000)
   3 Mn    -2.082858    3.607616    9.013716    ( 3.8971, -2.2500,  0.0000)
   4 I     -0.000000    4.810154   10.663250    ( 0.0000,  0.0000,  0.0000)
   5 I      4.165716    2.405077    7.364181    ( 0.0000,  0.0000,  0.0000)
   6 Mn     2.082858    3.607616    9.013716    (-3.8971, -2.2500,  0.0000)
   7 I     -2.082858    1.202539   10.663250    ( 0.0000,  0.0000,  0.0000)
   8 I     -4.165716    2.405077    7.364181    ( 0.0000,  0.0000,  0.0000)

Unit cell:
           periodic     x           y           z      points  spacing
  1. axis:    yes    6.248574    3.607616    0.000000    42     0.1488
  2. axis:    yes   -6.248574    3.607616    0.000000    42     0.1488
  3. axis:    yes    0.000000    0.000000   18.027431   105     0.1717

  Lengths:   7.215232   7.215232  18.027431
  Angles:   90.000000  90.000000 120.000000

Effective grid spacing dv^(1/3) = 0.1637

symmetry:
  number of symmetries: 1
  rotations: [
    [[ 1,  0,  0], [ 0,  1,  0], [ 0,  0,  1]]]

bz sampling:
  number of bz points: 144
  number of ibz points: 144
  monkhorst-pack size: [12, 12, 1]
  monkhorst-pack shift: [0.041666666666666664, 0.041666666666666664, 0.0]
  points and weights: [
    [[ -0.41666667,  -0.41666667,   0.00000000], 0.00694444],  # 0
    [[ -0.41666667,  -0.33333333,   0.00000000], 0.00694444],  # 1
    [[ -0.41666667,  -0.25000000,   0.00000000], 0.00694444],  # 2
    [[ -0.41666667,  -0.16666667,   0.00000000], 0.00694444],  # 3
    [[ -0.41666667,  -0.08333333,   0.00000000], 0.00694444],  # 4
    [[ -0.41666667,  -0.00000000,   0.00000000], 0.00694444],  # 5
    [[ -0.41666667,   0.08333333,   0.00000000], 0.00694444],  # 6
    [[ -0.41666667,   0.16666667,   0.00000000], 0.00694444],  # 7
    [[ -0.41666667,   0.25000000,   0.00000000], 0.00694444],  # 8
    [[ -0.41666667,   0.33333333,   0.00000000], 0.00694444],  # 9
    # ...
    [[  0.50000000,   0.50000000,   0.00000000], 0.00694444]]  # 143

plane wave coefficients: 27161
cutoff: 600.0 eV

spin-components: 4 (non-collinear spins)
bands: 114
projectors: 48
spin-degeneracy: 1
dtype: complex128

memory:
    storage: CPU
    wave functions: 14_207_588_352 bytes (887_974_272 per core)
    projectors: 3_614_211_072 bytes (225_888_192 per core)

parallelization:
    kpt:    4
    domain: 4
    band:   1

density:
  valence electrons: 87.0
  components: 4
  grid points: [ 42  42 105]
  charge: 0.0  # |e|

potential:
  grid points: [ 42  42 105]

species:
  Mn:
    name: Manganese
    id: 0d715a8018be061a6e9ea6f2d364ac92
    Z: 25.0
    valence: 15
    core: 10
    charge: 0.0
    file: /zhome/ae/1/229651/venv/lib/python3.11/site-packages/gpaw_data/setups/Mn.LDA.gz
    compensation charges: {type: gauss,
                           rc: 0.38,
                           lmax: 2}
    cutoffs: {filter: 2.14,
              core: 0.86}
    projectors:
      #              energy  rcut
      - 3s(2.00)   -85.387   1.275
      - 4s(2.00)    -5.282   1.275
      - 3p(6.00)   -54.493   1.281
      - 4p(0.00)    -1.471   1.281
      - 3d(5.00)    -7.009   1.138
      -  d          20.203   1.138
  
    # Using partial waves for Mn as LCAO basis

  I:
    name: Iodine
    id: b559721c0c096a7b4c8fc0e0f4de5cf4
    Z: 53.0
    valence: 7
    core: 46
    charge: 0.0
    file: /zhome/ae/1/229651/venv/lib/python3.11/site-packages/gpaw_data/setups/I.LDA.gz
    compensation charges: {type: gauss,
                           rc: 0.37,
                           lmax: 2}
    cutoffs: {filter: 2.06,
              core: 2.90}
    projectors:
      #              energy  rcut
      - 5s(2.00)   -17.626   1.164
      - 5p(5.00)    -7.241   1.164
      -  s           9.585   1.164
      -  p          19.970   1.164
      -  d           0.000   1.164
  
    # Using partial waves for I as LCAO basis

Reference energy: -1254667.327294  # eV

eigensolver:
  {'converge_bands': 'occupied', 'name': 'PPCG', 'niter': 2}
Density mixing:
  Method: sum
  Backend: pulay
  Linear mixing parameter: 0.05
  old densities: 5
  Damping of long wavelength oscillations: 100
occupation numbers:
  Fermi-Dirac:
    width: 0.0100  # eV
  

<gpaw.new.pw.paw_poisson.SlowPAWPoissonSolver object at 0x7faef6425990>
xc functional:
  name: None

convergence criteria:
- Maximum integral of absolute [dens]ity change: 1e-09 electrons / valence electron
- Maximum [total energy] change in last 3 cyles: 5e-07 eV / valence electron
- Maximum integral of absolute [eigenst]ate change: 1e-10 eV^2 / valence electron
maximum number of iterations: 200

     iter     time        total  log10-change:
                         energy   eigst   dens
iter:   1 09:27:38   -45.777136   +0.19          +0.0,+0.0,+0.0
iter:   2 09:39:24   -45.696453   -1.02  -1.48   -0.0,-0.0,-0.0
iter:   3 09:51:07   -45.485270   -1.06  -1.51   +0.0,+0.0,+0.0
iter:   4 10:02:50   -46.649920   -1.07  -1.65   -0.0,+0.0,+0.0
iter:   5 10:14:32   -46.059260   -1.58  -1.64   +0.0,+0.0,+0.0
iter:   6 10:26:15   -45.437463   -1.07  -1.81   +0.0,+0.0,-0.0
iter:   7 10:37:59   -45.507969   -2.13  -2.28   -0.0,+0.0,-0.0
iter:   8 10:49:50   -45.443328   -2.46  -2.31   -0.0,+0.0,+0.0
iter:   9 11:01:36   -45.437925   -2.21  -2.49   -0.0,+0.0,+0.0
iter:  10 11:13:22   -45.438368   -2.43  -2.38   +0.0,+0.0,+0.0
iter:  11 11:25:16   -45.427405   -2.84  -2.60   +0.0,+0.0,+0.0
iter:  12 11:37:03   -45.430425   -2.92  -2.79   +0.0,+0.0,+0.0
iter:  13 11:48:45   -45.428295   -3.70  -2.89   +0.0,+0.0,+0.0
iter:  14 12:00:15   -45.426857   -3.52  -3.07   +0.0,+0.0,+0.0
iter:  15 12:11:44   -45.426807   -4.21  -3.35   +0.0,+0.0,+0.0
iter:  16 12:23:13   -45.426824   -4.60  -3.49   +0.0,+0.0,+0.0
iter:  17 12:34:48   -45.426878   -4.89  -3.50   +0.0,+0.0,+0.0
iter:  18 12:46:29   -45.426966   -4.78  -3.66   +0.0,+0.0,+0.0
iter:  19 12:58:36   -45.426897   -5.20  -3.79   +0.0,+0.0,+0.0
iter:  20 13:10:46   -45.426896   -5.54  -3.95   +0.0,+0.0,+0.0
iter:  21 13:22:53   -45.426895c  -5.81  -4.01   +0.0,+0.0,+0.0
iter:  22 13:34:57   -45.426888c  -5.98  -4.07   +0.0,+0.0,+0.0
iter:  23 13:47:07   -45.426881c  -5.88  -4.13   +0.0,+0.0,+0.0
iter:  24 13:59:10   -45.426882c  -6.34  -4.59   +0.0,+0.0,+0.0
iter:  25 14:11:15   -45.426881c  -6.58  -4.59   +0.0,+0.0,+0.0
iter:  26 14:23:26   -45.426882c  -6.72  -4.63   +0.0,+0.0,+0.0
iter:  27 14:35:33   -45.426882c  -6.95  -4.64   +0.0,+0.0,+0.0
iter:  28 14:47:43   -45.426882c  -7.10  -4.69   +0.0,+0.0,+0.0
iter:  29 14:59:56   -45.426882c  -7.24  -4.81   +0.0,+0.0,+0.0
iter:  30 15:09:38   -45.426882c  -7.48  -4.85   +0.0,+0.0,+0.0
iter:  31 15:21:26   -45.426882c  -7.52  -4.88   +0.0,+0.0,+0.0
iter:  32 15:27:06   -45.426882c  -7.61  -5.17   +0.0,+0.0,+0.0
iter:  33 15:32:44   -45.426882c  -7.84  -5.21   +0.0,+0.0,+0.0
iter:  34 15:38:21   -45.426882c  -7.86  -5.26   +0.0,+0.0,+0.0
iter:  35 15:50:34   -45.426882c  -7.93  -5.32   +0.0,+0.0,+0.0
iter:  36 15:56:15   -45.426882c  -8.58  -5.49   +0.0,+0.0,+0.0
iter:  37 16:01:56   -45.426882c  -7.82  -5.53   +0.0,+0.0,+0.0
iter:  38 16:07:38   -45.426882c  -8.58  -5.99   +0.0,+0.0,+0.0
iter:  39 16:13:18   -45.426882c  -8.80  -6.05   +0.0,+0.0,+0.0
iter:  40 16:18:59   -45.426882c  -9.01  -6.16   +0.0,+0.0,+0.0
iter:  41 16:24:41   -45.426882c  -9.03  -6.15   +0.0,+0.0,+0.0
iter:  42 16:30:20   -45.426882c  -9.04  -6.12   +0.0,+0.0,+0.0
iter:  43 16:35:59   -45.426882c  -9.19  -6.24   +0.0,+0.0,+0.0
iter:  44 16:41:40   -45.426882c  -9.22  -6.30   +0.0,+0.0,+0.0
iter:  45 16:47:20   -45.426882c  -9.36  -6.49   +0.0,+0.0,+0.0
iter:  46 16:53:02   -45.426882c  -9.37  -6.74   +0.0,+0.0,+0.0
iter:  47 16:58:44   -45.426882c  -9.45  -6.76   +0.0,+0.0,+0.0
iter:  48 17:04:26   -45.426882c  -9.53  -6.80   +0.0,+0.0,+0.0
iter:  49 17:10:07   -45.426882c  -9.57  -6.80   +0.0,+0.0,+0.0
iter:  50 17:15:47   -45.426882c  -9.63  -6.94   +0.0,+0.0,+0.0
iter:  51 17:21:28   -45.426882c  -9.67  -7.03   +0.0,+0.0,+0.0
iter:  52 17:27:05   -45.426882c  -9.68  -7.09   +0.0,+0.0,+0.0
iter:  53 17:32:45   -45.426882c  -9.76  -7.13   +0.0,+0.0,+0.0
iter:  54 17:38:27   -45.426882c  -9.79  -7.35   +0.0,+0.0,+0.0
iter:  55 17:44:08   -45.426882c  -9.85  -7.55   +0.0,+0.0,+0.0
iter:  56 17:49:51   -45.426882c  -9.90  -7.65   +0.0,+0.0,+0.0
iter:  57 17:55:32   -45.426882c  -9.95  -7.71   +0.0,+0.0,+0.0
iter:  58 18:01:14   -45.426882c  -9.99  -7.76   +0.0,+0.0,+0.0
iter:  59 18:06:55   -45.426882c -10.04c -7.78   +0.0,+0.0,+0.0
iter:  60 18:12:38   -45.426882c -10.08c -7.77   +0.0,+0.0,+0.0
iter:  61 18:18:17   -45.426882c -10.13c -7.83   +0.0,+0.0,+0.0
iter:  62 18:23:59   -45.426882c -10.18c -7.86   +0.0,+0.0,+0.0
iter:  63 18:29:41   -45.426882c -10.22c -7.91   +0.0,+0.0,+0.0
iter:  64 18:35:20   -45.426882c -10.27c -7.88   +0.0,+0.0,+0.0
iter:  65 18:40:59   -45.426882c -10.31c -7.93   +0.0,+0.0,+0.0
iter:  66 18:46:39   -45.426882c -10.36c -7.96   +0.0,+0.0,+0.0
iter:  67 18:52:20   -45.426882c -10.40c -8.09   +0.0,+0.0,+0.0
iter:  68 18:57:58   -45.426882c -10.45c -8.27   +0.0,+0.0,+0.0
iter:  69 19:03:37   -45.426882c -10.50c -8.51   +0.0,+0.0,+0.0
iter:  70 19:09:16   -45.426882c -10.54c -8.48   +0.0,+0.0,+0.0
iter:  71 19:14:53   -45.426882c -10.59c -8.45   +0.0,+0.0,+0.0
iter:  72 19:20:31   -45.426882c -10.63c -8.41   +0.0,+0.0,+0.0
iter:  73 19:26:07   -45.426882c -10.68c -8.42   +0.0,+0.0,+0.0
iter:  74 19:31:44   -45.426882c -10.72c -8.46   +0.0,+0.0,+0.0
iter:  75 19:37:22   -45.426882c -10.77c -8.44   +0.0,+0.0,+0.0
iter:  76 19:42:59   -45.426882c -10.81c -8.37   +0.0,+0.0,+0.0
iter:  77 19:48:34   -45.426882c -10.86c -8.39   +0.0,+0.0,+0.0
iter:  78 19:54:15   -45.426882c -10.91c -8.31   +0.0,+0.0,+0.0
iter:  79 19:59:50   -45.426882c -10.95c -8.36   +0.0,+0.0,+0.0
iter:  80 20:05:32   -45.426882c -10.99c -8.36   +0.0,+0.0,+0.0
iter:  81 20:11:12   -45.426882c -11.01c -8.31   +0.0,+0.0,+0.0
iter:  82 20:16:53   -45.426882c -11.08c -8.63   +0.0,+0.0,+0.0
iter:  83 20:22:32   -45.426882c -11.13c -8.67   +0.0,+0.0,+0.0
iter:  84 20:28:12   -45.426882c -11.17c -8.72   +0.0,+0.0,+0.0
iter:  85 20:33:49   -45.426882c -11.22c -8.77   +0.0,+0.0,+0.0
iter:  86 20:39:26   -45.426882c -11.26c -8.93   +0.0,+0.0,+0.0
iter:  87 20:45:01   -45.426882c -11.30c -8.97   +0.0,+0.0,+0.0
iter:  88 20:50:39   -45.426882c -11.34c -9.05c  +0.0,+0.0,+0.0
Converged in 88 steps
Energy contributions relative to reference atoms: (reference = -1254667.327294)

kinetic:          43.090107
coulomb:         -37.380602
zero:              0.280038
external:          0.000000
xc:              -51.416425
entropy:          -0.000000
spinorbit:         0.000000
----------------------------
Free energy:     -45.426882
Extrapolated:    -45.426882

dipole moment: [61.514674, 19.574374, 0.000480]  # |e|*Ang

total magnetic moment: [0.000000, 0.001214, 0.000000]

local magnetic moments: [
  [-0.000000,  4.192779,  0.000000],  # Mn 0
  [ 0.000000,  0.000007,  0.000000],  # I  1
  [ 0.000000,  0.000007,  0.000000],  # I  2
  [ 3.631345, -2.095875,  0.000000],  # Mn 3
  [ 0.000000,  0.000007,  0.000000],  # I  4
  [-0.000000,  0.000007,  0.000000],  # I  5
  [-3.631345, -2.095875,  0.000000],  # Mn 6
  [-0.000000,  0.000007,  0.000000],  # I  7
  [ 0.000000,  0.000007,  0.000000]]  # I  8


Fermi level: -1.446

kpt = [-0.417, -0.417, 0.000], weight = 0.007:
  Band      eig [eV]   occ [0-1]
     0       -82.768       1.000
   ...
    79        -3.808       1.000
    80        -3.689       1.000
    81        -2.798       1.000
    82        -2.798       1.000
    83        -2.735       1.000
    84        -2.678       1.000
    85        -2.545       1.000
    86        -2.545       1.000
    87        -1.091       0.000
    88        -1.091       0.000
    89        -1.010       0.000
    90        -0.979       0.000
    91        -0.887       0.000
    92        -0.887       0.000
    93        -0.754       0.000
    94        -0.754       0.000
   ...
   113         2.753       0.000

kpt = [-0.417, -0.333, 0.000], weight = 0.007:
  Band      eig [eV]   occ [0-1]
     0       -82.768       1.000
   ...
    79        -3.801       1.000
    80        -3.742       1.000
    81        -2.813       1.000
    82        -2.794       1.000
    83        -2.773       1.000
    84        -2.587       1.000
    85        -2.539       1.000
    86        -2.522       1.000
    87        -1.078       0.000
    88        -1.072       0.000
    89        -1.030       0.000
    90        -0.977       0.000
    91        -0.933       0.000
    92        -0.904       0.000
    93        -0.737       0.000
    94        -0.726       0.000
   ...
   113         2.627       0.000

kpt = [-0.417, -0.250, 0.000], weight = 0.007:
  Band      eig [eV]   occ [0-1]
     0       -82.768       1.000
   ...
    79        -3.801       1.000
    80        -3.742       1.000
    81        -2.813       1.000
    82        -2.794       1.000
    83        -2.773       1.000
    84        -2.587       1.000
    85        -2.539       1.000
    86        -2.522       1.000
    87        -1.078       0.000
    88        -1.072       0.000
    89        -1.030       0.000
    90        -0.977       0.000
    91        -0.933       0.000
    92        -0.904       0.000
    93        -0.737       0.000
    94        -0.726       0.000
   ...
   113         2.627       0.000
(only showing first 3 out of 144 k-points)

Gap: 1.418 eV
Transition (v -> c):
  (s=0, k=87, n=86, [0.17, -0.17, 0.00]) -> (s=0, k=71, n=87, [-0.00, 0.50, 0.00])
Direct/indirect transitions are different
Direct gap: 1.444 eV
Transition at: (s=0, k=116, n=86, [0.33, 0.25, 0.00])
# Writing to MnI2_SOC__SCF_GS.gpw (mode='')


timing:  # [seconds]
  Total: 41817.843  # ━━━━━━━━━━━━━━━━━━━━━━━━━━━━━━━━━━━━━━━━━━━━━━━━━━━━━━━
  Init:    202.351  # ╸
  SCF:   41613.258  # ━━━━━━━━━━━━━━━━━━━━━━━━━━━━━━━━━━━━━━━━━━━━━━━━━━━━━━╸
