  ___ ___ ___ _ _ _
 |   |   |_  | | | |
 | | | | | . | | | |
 |__ |  _|___|_____| - 25.7.1b1
 |___|_|

User:   s260438@n-62-29-23
Date:   Mon May  4 21:37:14 2026
Arch:   x86_64
Pid:    1484907
CWD:    /zhome/ae/1/229651/VAl2Se4_SOC
Python: 3.11.7
gpaw:   /zhome/ae/1/229651/venv/gpaw/gpaw (fd205d5876)
_gpaw:  /zhome/ae/1/229651/venv/gpaw/
        _gpaw.cpython-311-x86_64-linux-gnu.so (fd205d5876)
ase:    /zhome/ae/1/229651/venv/ase/ase (version 3.28.0b1-536df4049d)
numpy:  /zhome/ae/1/229651/venv/lib/python3.11/site-packages/numpy (version 2.4.2)
scipy:  /zhome/ae/1/229651/venv/lib/python3.11/site-packages/scipy (version 1.17.0)
libxc:  6.1.0
units:  Angstrom and eV
cores: 16
OpenMP: False
OMP_NUM_THREADS: 1

input parameters:
  mode=PW(ecut=600),
  kpts=MonkhorstPack(size=(12, 12, 1), gamma=True),
  magmoms=array([[ 1.35525403e-32,  2.40000000e+00, -2.21329780e-16],
         [ 0.00000000e+00,  0.00000000e+00,  0.00000000e+00],
         [ 0.00000000e+00,  0.00000000e+00,  0.00000000e+00],
         [ 0.00000000e+00,  0.00000000e+00,  0.00000000e+00],
         [ 0.00000000e+00,  0.00000000e+00,  0.00000000e+00],
         [ 0.00000000e+00,  0.00000000e+00,  0.00000000e+00],
         [ 0.00000000e+00,  0.00000000e+00,  0.00000000e+00],
         [ 1.27269029e-16, -1.20000000e+00, -2.07846097e+00],
         [ 0.00000000e+00,  0.00000000e+00,  0.00000000e+00],
         [ 0.00000000e+00,  0.00000000e+00,  0.00000000e+00],
         [ 0.00000000e+00,  0.00000000e+00,  0.00000000e+00],
         [ 0.00000000e+00,  0.00000000e+00,  0.00000000e+00],
         [ 0.00000000e+00,  0.00000000e+00,  0.00000000e+00],
         [ 0.00000000e+00,  0.00000000e+00,  0.00000000e+00],
         [-1.27269029e-16, -1.20000000e+00,  2.07846097e+00],
         [ 0.00000000e+00,  0.00000000e+00,  0.00000000e+00],
         [ 0.00000000e+00,  0.00000000e+00,  0.00000000e+00],
         [ 0.00000000e+00,  0.00000000e+00,  0.00000000e+00],
         [ 0.00000000e+00,  0.00000000e+00,  0.00000000e+00],
         [ 0.00000000e+00,  0.00000000e+00,  0.00000000e+00],
         [ 0.00000000e+00,  0.00000000e+00,  0.00000000e+00]]),
  maxiter=200,
  mixer=Mixer(backend='pulay', beta=0.05, method='sum', nmaxold=5, weight=100),
  occupations=Occupations(name='fermi-dirac', width=0.01, fixmagmom=False),
  parallel={'domain': 4, 'kpt': 4, 'band': 1},
  soc=True,
  spinpol=True,
  symmetry=Symmetry(point_group=False, time_reversal=False),
  xc=XC(name='LDA')

environment variables:
  GPAW_CPUPY=False,
  GPAW_DEBUG=False,
  GPAW_INITIALIZE_MPI=True,
  GPAW_MPI_BACKEND='cgpaw',
  GPAW_NEW=0,
  GPAW_NO_C_EXTENSION=False,
  GPAW_NO_GPU_MPI=False,
  GPAW_TRACE=False,
  GPAW_USE_GPUS=False

Diagonalizing LCAO Hamiltonian
Converting LCAO to pw mode
                                      
                                      
                                      
                                      
                   Se                 
                                      
        Al   Se   Al  Se    Al        
                                      
                                      
        Se        Se        Se        
              V        V              
                   Se                 
                 V                    
             Se       Se              
                   Al                 
                                      
             Al       Al              
        Se        Se        Se        
                                      
                                      
                                      
                                      
                                      

Atomic positions and initial magnetic moments

Positions:
   0 V     -0.000000    0.000000   19.727623    ( 0.0000,  2.4000, -0.0000)
   1 Al     1.948825    1.125155   16.064978    ( 0.0000,  0.0000,  0.0000)
   2 Al    -0.000000    2.250309   23.390268    ( 0.0000,  0.0000,  0.0000)
   3 Se     1.948825    1.125155   18.409705    ( 0.0000,  0.0000,  0.0000)
   4 Se    -0.000000    2.250309   21.045542    ( 0.0000,  0.0000,  0.0000)
   5 Se     1.948825    1.125155   24.461730    ( 0.0000,  0.0000,  0.0000)
   6 Se    -0.000000    2.250309   14.993516    ( 0.0000,  0.0000,  0.0000)
   7 V     -1.948825    3.375464   19.727623    ( 0.0000, -1.2000, -2.0785)
   8 Al    -0.000000    4.500619   16.064978    ( 0.0000,  0.0000,  0.0000)
   9 Al     3.897650    2.250309   23.390268    ( 0.0000,  0.0000,  0.0000)
  10 Se    -0.000000    4.500619   18.409705    ( 0.0000,  0.0000,  0.0000)
  11 Se     3.897650    2.250309   21.045542    ( 0.0000,  0.0000,  0.0000)
  12 Se    -0.000000    4.500619   24.461730    ( 0.0000,  0.0000,  0.0000)
  13 Se     3.897650    2.250309   14.993516    ( 0.0000,  0.0000,  0.0000)
  14 V      1.948825    3.375464   19.727623    (-0.0000, -1.2000,  2.0785)
  15 Al    -1.948825    1.125155   16.064978    ( 0.0000,  0.0000,  0.0000)
  16 Al    -3.897650    2.250309   23.390268    ( 0.0000,  0.0000,  0.0000)
  17 Se    -1.948825    1.125155   18.409705    ( 0.0000,  0.0000,  0.0000)
  18 Se    -3.897650    2.250309   21.045542    ( 0.0000,  0.0000,  0.0000)
  19 Se    -1.948825    1.125155   24.461730    ( 0.0000,  0.0000,  0.0000)
  20 Se    -3.897650    2.250309   14.993516    ( 0.0000,  0.0000,  0.0000)

Unit cell:
           periodic     x           y           z      points  spacing
  1. axis:    yes    5.846475    3.375464    0.000000    40     0.1462
  2. axis:    yes   -5.846475    3.375464    0.000000    40     0.1462
  3. axis:    yes    0.000000    0.000000   39.455246   224     0.1761

  Lengths:   6.750928   6.750928  39.455246
  Angles:   90.000000  90.000000 120.000000

Effective grid spacing dv^(1/3) = 0.1632

symmetry:
  number of symmetries: 1
  rotations: [
    [[ 1,  0,  0], [ 0,  1,  0], [ 0,  0,  1]]]

bz sampling:
  number of bz points: 144
  number of ibz points: 144
  monkhorst-pack size: [12, 12, 1]
  monkhorst-pack shift: [0.041666666666666664, 0.041666666666666664, 0.0]
  points and weights: [
    [[ -0.41666667,  -0.41666667,   0.00000000], 0.00694444],  # 0
    [[ -0.41666667,  -0.33333333,   0.00000000], 0.00694444],  # 1
    [[ -0.41666667,  -0.25000000,   0.00000000], 0.00694444],  # 2
    [[ -0.41666667,  -0.16666667,   0.00000000], 0.00694444],  # 3
    [[ -0.41666667,  -0.08333333,   0.00000000], 0.00694444],  # 4
    [[ -0.41666667,  -0.00000000,   0.00000000], 0.00694444],  # 5
    [[ -0.41666667,   0.08333333,   0.00000000], 0.00694444],  # 6
    [[ -0.41666667,   0.16666667,   0.00000000], 0.00694444],  # 7
    [[ -0.41666667,   0.25000000,   0.00000000], 0.00694444],  # 8
    [[ -0.41666667,   0.33333333,   0.00000000], 0.00694444],  # 9
    # ...
    [[  0.50000000,   0.50000000,   0.00000000], 0.00694444]]  # 143

plane wave coefficients: 52147
cutoff: 600.0 eV

spin-components: 4 (non-collinear spins)
bands: 164
projectors: 108
spin-degeneracy: 1
dtype: complex128

memory:
    storage: CPU
    wave functions: 39_256_215_552 bytes (2_453_513_472 per core)
    projectors: 11_010_889_728 bytes (688_180_608 per core)

parallelization:
    kpt:    4
    domain: 4
    band:   1

density:
  valence electrons: 129.0
  components: 4
  grid points: [ 40  40 224]
  charge: 0.0  # |e|

potential:
  grid points: [ 40  40 224]

species:
  V:
    name: Vanadium
    id: 7939ce69e6bb5930668dfcf9bb1979c3
    Z: 23.0
    valence: 13
    core: 10
    charge: 0.0
    file: /zhome/ae/1/229651/venv/lib/python3.11/site-packages/gpaw_data/setups/V.LDA.gz
    compensation charges: {type: gauss,
                           rc: 0.37,
                           lmax: 2}
    cutoffs: {filter: 2.14,
              core: 0.96}
    projectors:
      #              energy  rcut
      - 3s(2.00)   -69.819   1.254
      - 4s(2.00)    -4.846   1.254
      - 3p(6.00)   -43.961   1.281
      - 4p(0.00)    -1.526   1.281
      - 3d(3.00)    -5.381   1.169
      -  d          21.830   1.169
  
    # Using partial waves for V as LCAO basis

  Al:
    name: Aluminium
    id: 2e6447feaea722efcff26bf034b25f30
    Z: 13.0
    valence: 3
    core: 10
    charge: 0.0
    file: /zhome/ae/1/229651/venv/lib/python3.11/site-packages/gpaw_data/setups/Al.LDA.gz
    compensation charges: {type: gauss,
                           rc: 0.34,
                           lmax: 2}
    cutoffs: {filter: 1.91,
              core: 2.36}
    projectors:
      #              energy  rcut
      - 3s(2.00)    -7.830   1.085
      - 3p(1.00)    -2.783   1.085
      -  s          19.382   1.085
      -  p          24.428   1.085
      -  d           0.000   1.085
  
    # Using partial waves for Al as LCAO basis

  Se:
    name: Selenium
    id: 32bc71fdf0f79e2eec071fc2341e94af
    Z: 34.0
    valence: 6
    core: 28
    charge: 0.0
    file: /zhome/ae/1/229651/venv/lib/python3.11/site-packages/gpaw_data/setups/Se.LDA.gz
    compensation charges: {type: gauss,
                           rc: 0.27,
                           lmax: 2}
    cutoffs: {filter: 1.77,
              core: 2.67}
    projectors:
      #              energy  rcut
      - 4s(2.00)   -17.472   0.847
      - 4p(4.00)    -6.656   1.005
      -  s           9.739   0.847
      -  p          20.555   1.005
      -  d           0.000   0.847
  
    # Using partial waves for Se as LCAO basis

Reference energy: -908979.417034  # eV

eigensolver:
  {'converge_bands': 'occupied', 'name': 'PPCG', 'niter': 2}
Density mixing:
  Method: sum
  Backend: pulay
  Linear mixing parameter: 0.05
  old densities: 5
  Damping of long wavelength oscillations: 100
occupation numbers:
  Fermi-Dirac:
    width: 0.0100  # eV
  

<gpaw.new.pw.paw_poisson.SlowPAWPoissonSolver object at 0x7fddbbf42090>
xc functional:
  name: None

convergence criteria:
- Maximum [total energy] change in last 3 cyles: 0.0005 eV / valence electron
- Maximum integral of absolute [dens]ity change: 0.0001 electrons / valence electron
- Maximum integral of absolute [eigenst]ate change: 4e-08 eV^2 / valence electron
maximum number of iterations: 200

     iter     time        total  log10-change:
                         energy   eigst   dens
iter:   1 22:22:20  -120.340660   +0.47          +0.0,+0.0,-0.0
iter:   2 22:54:29  -119.522933   -0.62  -1.07   -0.0,+0.0,-0.0
iter:   3 23:26:43  -118.687955   -0.41  -1.12   +0.0,-0.0,-0.0
iter:   4 23:59:23  -118.159366   -1.07  -1.25   +0.0,-0.0,-0.0
iter:   5 00:34:13  -118.043920   -1.06  -1.29   +0.0,+0.0,-0.0
iter:   6 01:09:27  -118.090751   -1.85  -1.62   +0.0,+0.0,-0.0
iter:   7 01:44:25  -117.943189   -1.34  -1.66   +0.0,+0.0,-0.0
iter:   8 02:19:17  -117.897868   -2.28  -2.02   +0.0,+0.0,-0.0
iter:   9 02:54:14  -117.876830   -2.39  -2.16   +0.0,+0.0,-0.0
iter:  10 03:29:28  -117.872793c  -2.81  -2.40   +0.0,+0.0,-0.0
iter:  11 04:04:57  -117.871022c  -3.28  -2.69   +0.0,+0.0,-0.0
iter:  12 04:40:25  -117.870212c  -4.00  -2.76   +0.0,+0.0,-0.0
iter:  13 05:15:38  -117.869962c  -4.33  -2.85   -0.0,+0.0,-0.0
iter:  14 05:50:43  -117.869766c  -4.63  -2.90   -0.0,+0.0,-0.0
iter:  15 06:25:51  -117.869612c  -4.63  -2.96   -0.0,+0.0,-0.0
iter:  16 07:01:19  -117.869465c  -4.89  -3.09   -0.0,+0.0,-0.0
iter:  17 07:36:15  -117.869372c  -4.83  -3.49   -0.0,+0.0,-0.0
iter:  18 08:10:58  -117.869366c  -5.64  -3.86   -0.0,+0.0,-0.0
iter:  19 08:45:42  -117.869364c  -6.20  -3.97   -0.0,+0.0,-0.0
iter:  20 09:20:21  -117.869363c  -6.26  -4.05c  -0.0,+0.0,-0.0
iter:  21 09:55:09  -117.869364c  -6.68  -4.18c  -0.0,+0.0,-0.0
iter:  22 10:30:34  -117.869364c  -6.78  -4.28c  -0.0,+0.0,-0.0
iter:  23 11:06:05  -117.869363c  -7.21  -4.40c  -0.0,+0.0,-0.0
iter:  24 11:40:57  -117.869363c  -7.24  -4.54c  -0.0,+0.0,-0.0
iter:  25 11:57:20  -117.869363c  -7.89c -4.71c  -0.0,+0.0,-0.0
Converged in 25 steps
Energy contributions relative to reference atoms: (reference = -908979.417034)

kinetic:         110.484021
coulomb:        -104.244631
zero:              0.270295
external:          0.000000
xc:             -123.748547
entropy:          -0.000580
spinorbit:        -0.630211
----------------------------
Free energy:    -117.869653
Extrapolated:   -117.869363

dipole moment: [-0.000261, -138.964569, 0.001721]  # |e|*Ang

total magnetic moment: [-0.000000, 0.001562, -0.000002]

local magnetic moments: [
  [-0.000000,  2.235412,  0.000001],  # V  0
  [ 0.000510, -0.000811, -0.000393],  # Al 1
  [ 0.000984,  0.000081,  0.000885],  # Al 2
  [-0.000076,  0.000154,  0.000114],  # Se 3
  [-0.000146, -0.000007, -0.000218],  # Se 4
  [ 0.000193, -0.000354, -0.000171],  # Se 5
  [ 0.000393,  0.000020,  0.000384],  # Se 6
  [-0.000000, -1.116938, -1.936353],  # V  7
  [-0.000984,  0.000081,  0.000885],  # Al 8
  [-0.000474,  0.000733, -0.000492],  # Al 9
  [ 0.000146, -0.000007, -0.000218],  # Se 10
  [ 0.000070, -0.000175,  0.000104],  # Se 11
  [-0.000393,  0.000020,  0.000384],  # Se 12
  [-0.000200,  0.000336, -0.000213],  # Se 13
  [-0.000000, -1.116941,  1.936350],  # V  14
  [ 0.000474,  0.000733, -0.000492],  # Al 15
  [-0.000510, -0.000811, -0.000393],  # Al 16
  [-0.000070, -0.000175,  0.000104],  # Se 17
  [ 0.000076,  0.000154,  0.000114],  # Se 18
  [ 0.000200,  0.000336, -0.000213],  # Se 19
  [-0.000193, -0.000354, -0.000171]]  # Se 20


Fermi level: -0.795

kpt = [-0.417, -0.417, 0.000], weight = 0.007:
  Band      eig [eV]   occ [0-1]
     0       -65.029       1.000
   ...
   121        -1.448       1.000
   122        -1.357       1.000
   123        -1.234       1.000
   124        -1.224       1.000
   125        -1.090       1.000
   126        -0.905       1.000
   127        -0.893       1.000
   128        -0.833       0.978
   129        -0.290       0.000
   130        -0.290       0.000
   131        -0.211       0.000
   132        -0.211       0.000
   133         0.105       0.000
   134         0.109       0.000
   135         0.113       0.000
   136         0.169       0.000
   ...
   163         1.655       0.000

kpt = [-0.417, -0.333, 0.000], weight = 0.007:
  Band      eig [eV]   occ [0-1]
     0       -65.029       1.000
   ...
   121        -1.396       1.000
   122        -1.376       1.000
   123        -1.318       1.000
   124        -1.288       1.000
   125        -1.224       1.000
   126        -0.893       1.000
   127        -0.875       1.000
   128        -0.848       0.995
   129        -0.204       0.000
   130        -0.201       0.000
   131        -0.088       0.000
   132        -0.086       0.000
   133        -0.061       0.000
   134         0.000       0.000
   135         0.005       0.000
   136         0.021       0.000
   ...
   163         1.663       0.000

kpt = [-0.417, -0.250, 0.000], weight = 0.007:
  Band      eig [eV]   occ [0-1]
     0       -65.029       1.000
   ...
   121        -1.398       1.000
   122        -1.376       1.000
   123        -1.317       1.000
   124        -1.289       1.000
   125        -1.222       1.000
   126        -0.893       1.000
   127        -0.874       1.000
   128        -0.849       0.995
   129        -0.204       0.000
   130        -0.201       0.000
   131        -0.088       0.000
   132        -0.086       0.000
   133        -0.061       0.000
   134         0.001       0.000
   135         0.006       0.000
   136         0.020       0.000
   ...
   163         1.662       0.000
(only showing first 3 out of 144 k-points)

No gap
No difference between direct/indirect transitions
# Writing to coarse_converged.gpw (mode='')


timing:  # [seconds]
  Total: 51610.274  # ━━━━━━━━━━━━━━━━━━━━━━━━━━━━━━━━━━━━━━━━━━━━━━━━━━━━━━━
  Init:    952.804  # ━
  SCF:   50652.958  # ━━━━━━━━━━━━━━━━━━━━━━━━━━━━━━━━━━━━━━━━━━━━━━━━━━━━━━
