  ___ ___ ___ _ _ _
 |   |   |_  | | | |
 | | | | | . | | | |
 |__ |  _|___|_____| - 25.7.0
 |___|_|

User:   runerce@runepop-os
Date:   Mon Apr 20 13:02:39 2026
Arch:   x86_64
Pid:    22678
CWD:    /home/runerce/Desktop/DFT-project-2026
Python: 3.10.12
gpaw:   /home/runerce/Desktop/DFT-project-2026/.venv/lib/python3.10/site-packages/gpaw
_gpaw:  /home/runerce/Desktop/DFT-project-2026/.venv/lib/python3.10/site-packages/
        _gpaw.cpython-310-x86_64-linux-gnu.so
ase:    /home/runerce/Desktop/DFT-project-2026/.venv/lib/python3.10/site-packages/ase (version 3.28.0)
numpy:  /home/runerce/Desktop/DFT-project-2026/.venv/lib/python3.10/site-packages/numpy (version 2.2.6)
scipy:  /home/runerce/Desktop/DFT-project-2026/.venv/lib/python3.10/site-packages/scipy (version 1.15.3)
libxc:  2.x.y
units:  Angstrom and eV
cores: 1
OpenMP: False
OMP_NUM_THREADS: 1

input parameters:
  mode=PW(ecut=300),
  kpts=MonkhorstPack(size=(3, 3, 1), gamma=True),
  magmoms=array([[ 1.35074009e-17,  4.50000000e+00,  0.00000000e+00],
         [ 0.00000000e+00,  0.00000000e+00,  0.00000000e+00],
         [ 0.00000000e+00,  0.00000000e+00,  0.00000000e+00],
         [ 3.89711432e+00, -2.25000000e+00,  0.00000000e+00],
         [ 0.00000000e+00,  0.00000000e+00,  0.00000000e+00],
         [ 0.00000000e+00,  0.00000000e+00,  0.00000000e+00],
         [-3.89711432e+00, -2.25000000e+00,  0.00000000e+00],
         [ 0.00000000e+00,  0.00000000e+00,  0.00000000e+00],
         [ 0.00000000e+00,  0.00000000e+00,  0.00000000e+00]]),
  maxiter=50,
  mixer=Mixer(backend='pulay', beta=0.05, method='sum', nmaxold=5, weight=100),
  occupations=Occupations(name='fermi-dirac', width=0.01, fixmagmom=False),
  parallel={'domain': 1, 'band': 1},
  spinpol=True,
  symmetry=Symmetry(point_group=False, time_reversal=False),
  xc=XC(name='LDA')

environment variables:
  GPAW_CPUPY=False,
  GPAW_MPI4PY=False,
  GPAW_NEW=False,
  GPAW_NO_C_EXTENSION=False,
  GPAW_TRACE=False,
  GPAW_USE_GPUS=False

Diagonalizing LCAO Hamiltonian
Converting LCAO to grid
                                       
                                       
                                       
                                       
                    I                  
                                       
             IMn       IMn             
                                       
                 Mn                    
        I         I          I         
                                       
                                       
                                       
                                       
                                       

Atomic positions and initial magnetic moments

Positions:
   0 Mn    -0.000000    0.000000    9.013716    ( 0.0000,  4.5000,  0.0000)
   1 I      2.082858    1.202539   10.663250    ( 0.0000,  0.0000,  0.0000)
   2 I     -0.000000    2.405077    7.364181    ( 0.0000,  0.0000,  0.0000)
   3 Mn    -2.082858    3.607616    9.013716    ( 3.8971, -2.2500,  0.0000)
   4 I     -0.000000    4.810154   10.663250    ( 0.0000,  0.0000,  0.0000)
   5 I      4.165716    2.405077    7.364181    ( 0.0000,  0.0000,  0.0000)
   6 Mn     2.082858    3.607616    9.013716    (-3.8971, -2.2500,  0.0000)
   7 I     -2.082858    1.202539   10.663250    ( 0.0000,  0.0000,  0.0000)
   8 I     -4.165716    2.405077    7.364181    ( 0.0000,  0.0000,  0.0000)

Unit cell:
           periodic     x           y           z      points  spacing
  1. axis:    yes    6.248574    3.607616    0.000000    30     0.2083
  2. axis:    yes   -6.248574    3.607616    0.000000    30     0.2083
  3. axis:    yes    0.000000    0.000000   18.027431    75     0.2404

  Lengths:   7.215232   7.215232  18.027431
  Angles:   90.000000  90.000000 120.000000

Effective grid spacing dv^(1/3) = 0.2292

symmetry:
  number of symmetries: 1
  rotations: [
    [[ 1,  0,  0], [ 0,  1,  0], [ 0,  0,  1]]]

bz sampling:
  number of bz points: 9
  number of ibz points: 9
  monkhorst-pack size: [3, 3, 1]
  monkhorst-pack shift: [0, 0, 0]
  points and weights: [
    [[ -0.33333333,  -0.33333333,   0.00000000], 0.11111111],  # 0
    [[ -0.33333333,   0.00000000,   0.00000000], 0.11111111],  # 1
    [[ -0.33333333,   0.33333333,   0.00000000], 0.11111111],  # 2
    [[  0.00000000,  -0.33333333,   0.00000000], 0.11111111],  # 3
    [[  0.00000000,   0.00000000,   0.00000000], 0.11111111],  # 4
    [[  0.00000000,   0.33333333,   0.00000000], 0.11111111],  # 5
    [[  0.33333333,  -0.33333333,   0.00000000], 0.11111111],  # 6
    [[  0.33333333,   0.00000000,   0.00000000], 0.11111111],  # 7
    [[  0.33333333,   0.33333333,   0.00000000], 0.11111111]]  # 8

plane wave coefficients: 9604
cutoff: 300.0 eV

spin-components: 4  # (non-collinear spins)
bands: 114
spin-degeneracy: 1
dtype: complex128

memory:
    storage: CPU
    wave functions: 314_990_208  # bytes  (314_990_208 per core)

parallelization:
    kpt:    1
    domain: 1
    band:   1

density:
  valence electrons: 87.0
  components: 4
  grid points: [30 30 75]
  charge: 0.0  # |e|

potential:
  grid points: [30 30 75]

species:
  Mn:
    name: Manganese
    id: 0d715a8018be061a6e9ea6f2d364ac92
    Z: 25.0
    valence: 15
    core: 10
    charge: 0.0
    file: /home/runerce/Desktop/DFT-project-2026/.venv/lib/python3.10/site-packages/gpaw_data/setups/Mn.LDA.gz
    compensation charges: {type: gauss,
                           rc: 0.38,
                           lmax: 2}
    cutoffs: {filter: 2.14,
              core: 0.86}
    projectors:
      #              energy  rcut
      - 3s(2.00)   -85.387   1.275
      - 4s(2.00)    -5.282   1.275
      - 3p(6.00)   -54.493   1.281
      - 4p(0.00)    -1.471   1.281
      - 3d(5.00)    -7.009   1.138
      -  d          20.203   1.138
  
    # Using partial waves for Mn as LCAO basis

  I:
    name: Iodine
    id: b559721c0c096a7b4c8fc0e0f4de5cf4
    Z: 53.0
    valence: 7
    core: 46
    charge: 0.0
    file: /home/runerce/Desktop/DFT-project-2026/.venv/lib/python3.10/site-packages/gpaw_data/setups/I.LDA.gz
    compensation charges: {type: gauss,
                           rc: 0.37,
                           lmax: 2}
    cutoffs: {filter: 2.06,
              core: 2.90}
    projectors:
      #              energy  rcut
      - 5s(2.00)   -17.626   1.164
      - 5p(5.00)    -7.241   1.164
      -  s           9.585   1.164
      -  p          19.970   1.164
      -  d           0.000   1.164
  
    # Using partial waves for I as LCAO basis

Reference energy: -1254667.327294  # eV

eigensolver:
  {'converge_bands': 'occupied', 'name': 'Davidson', 'niter': 2}
Density mixing:
  Method: sum
  Backend: pulay
  Linear mixing parameter: 0.05
  old densities: 5
  Damping of long wavelength oscillations: 100
occupation numbers:
  Fermi-Dirac:
    width: 0.0100  # eV
  

<gpaw.new.pw.paw_poisson.SlowPAWPoissonSolver object at 0x7a455a565930>
xc functional:
  name: None

convergence criteria:
- Maximum [total energy] change in last 3 cyles: 0.0005 eV / valence electron
- Maximum integral of absolute [dens]ity change: 0.0001 electrons / valence electron
- Maximum integral of absolute [eigenst]ate change: 4e-08 eV^2 / valence electron
maximum number of iterations: 50

     iter     time        total  log10-change:
                         energy   eigst   dens
iter:   1 13:03:50   -45.546872   -0.27          -0.0,+0.0,+0.0
iter:   2 13:04:24   -45.383052   -1.11  -1.49   -0.0,-0.0,-0.0
iter:   3 13:04:57   -45.105646   -1.30  -1.51   -0.0,-0.0,-0.0
iter:   4 13:05:30   -45.120399   -1.77  -1.63   +0.0,-0.0,-0.0
iter:   5 13:06:04 [32m  -45.147387[0mc  -1.89  -1.73   -0.0,-0.0,-0.0
iter:   6 13:06:37   -45.392408   -1.85  -2.21   -0.0,-0.0,-0.0
iter:   7 13:07:11   -45.339386   -2.41  -2.18   -0.0,-0.0,-0.0
iter:   8 13:07:44   -45.117679   -1.82  -2.17   -0.0,+0.0,-0.0
iter:   9 13:08:19   -45.190706   -2.30  -2.85   -0.0,+0.0,-0.0
iter:  10 13:08:51   -45.147230   -3.04  -2.37   +0.0,+0.0,-0.0
iter:  11 13:09:23   -45.138635   -3.42  -2.54   +0.0,+0.0,-0.0
iter:  12 13:09:55 [32m  -45.122375[0mc  -3.27  -2.62   +0.0,+0.0,+0.0
iter:  13 13:10:27 [32m  -45.120427[0mc  -3.56  -3.06   +0.0,+0.0,-0.0
iter:  14 13:10:59 [32m  -45.120457[0mc  -3.99  -3.41   -0.0,+0.0,-0.0
iter:  15 13:11:30 [32m  -45.120462[0mc  -4.20  -3.49   +0.0,+0.0,-0.0
iter:  16 13:12:02 [32m  -45.120586[0mc  -4.27  -3.60   -0.0,+0.0,-0.0
iter:  17 13:12:34 [32m  -45.120569[0mc  -4.38  -3.45   -0.0,+0.0,-0.0
iter:  18 13:13:05 [32m  -45.120537[0mc  -4.67  -3.79   +0.0,+0.0,-0.0
iter:  19 13:13:37 [32m  -45.120514[0mc  -4.73  -3.93   +0.0,+0.0,-0.0
iter:  20 13:14:09 [32m  -45.120513[0mc  -4.94  [32m-4.20[0mc  +0.0,+0.0,-0.0
iter:  21 13:14:40 [32m  -45.120512[0mc  -5.09  [32m-4.28[0mc  +0.0,+0.0,-0.0
iter:  22 13:15:12 [32m  -45.120533[0mc  -5.18  [32m-4.34[0mc  +0.0,+0.0,-0.0
iter:  23 13:15:44 [32m  -45.120522[0mc  -5.37  [32m-4.20[0mc  -0.0,+0.0,-0.0
iter:  24 13:16:15 [32m  -45.120523[0mc  -5.50  [32m-4.27[0mc  -0.0,+0.0,-0.0
iter:  25 13:16:47 [32m  -45.120516[0mc  -5.62  [32m-4.29[0mc  +0.0,+0.0,-0.0
iter:  26 13:17:18 [32m  -45.120516[0mc  -5.78  [32m-4.41[0mc  +0.0,+0.0,-0.0
iter:  27 13:17:50 [32m  -45.120516[0mc  -5.90  [32m-4.46[0mc  +0.0,+0.0,-0.0
iter:  28 13:18:22 [32m  -45.120515[0mc  -6.03  [32m-4.61[0mc  +0.0,+0.0,-0.0
iter:  29 13:18:53 [32m  -45.120515[0mc  -6.15  [32m-4.66[0mc  +0.0,+0.0,-0.0
iter:  30 13:19:25 [32m  -45.120516[0mc  -6.26  [32m-4.71[0mc  +0.0,+0.0,+0.0
iter:  31 13:19:56 [32m  -45.120515[0mc  -6.37  [32m-4.82[0mc  +0.0,+0.0,-0.0
iter:  32 13:20:28 [32m  -45.120515[0mc  -6.52  [32m-5.52[0mc  -0.0,+0.0,-0.0
iter:  33 13:21:00 [32m  -45.120515[0mc  -6.64  [32m-5.60[0mc  -0.0,+0.0,-0.0
iter:  34 13:21:32 [32m  -45.120515[0mc  -6.76  [32m-5.63[0mc  -0.0,+0.0,-0.0
iter:  35 13:22:04 [32m  -45.120515[0mc  -6.89  [32m-5.79[0mc  +0.0,+0.0,-0.0
iter:  36 13:22:35 [32m  -45.120515[0mc  -7.01  [32m-6.14[0mc  +0.0,+0.0,-0.0
iter:  37 13:23:07 [32m  -45.120515[0mc  -7.13  [32m-6.21[0mc  -0.0,+0.0,-0.0
iter:  38 13:23:39 [32m  -45.120515[0mc  -7.26  [32m-6.39[0mc  +0.0,+0.0,-0.0
iter:  39 13:24:11 [32m  -45.120515[0mc  -7.39  [32m-6.45[0mc  -0.0,+0.0,-0.0
iter:  40 13:24:43 [32m  -45.120515[0mc [32m -7.52[0mc [32m-6.53[0mc  -0.0,+0.0,-0.0
Converged in 40 steps
Energy contributions relative to reference atoms: (reference = -1254667.327294)

kinetic:          47.981824
coulomb:         -41.794337
zero:              0.241319
external:          0.000000
xc:              -51.549322
entropy:          -0.000000
spinorbit:         0.000000
----------------------------
Free energy:     -45.120515
Extrapolated:    -45.120515

dipole moment: [61.515185, 19.579664, 0.000480]  # |e|*Ang

total magnetic moment: [-0.000000, 0.000205, -0.000000]

local magnetic moments: [
  [-0.000000,  4.185871, -0.000000],  # Mn 0
  [ 0.000000,  0.000001, -0.000000],  # I  1
  [-0.000000,  0.000001, -0.000000],  # I  2
  [ 3.625120, -2.092849, -0.000000],  # Mn 3
  [-0.000000,  0.000001, -0.000000],  # I  4
  [-0.000000,  0.000001, -0.000000],  # I  5
  [-3.625120, -2.092849,  0.000000],  # Mn 6
  [-0.000000,  0.000001, -0.000000],  # I  7
  [ 0.000000,  0.000001, -0.000000]]  # I  8


Fermi level: -1.857

kpt = [-0.333, -0.333, 0.000], weight = 0.111:
  Band      eig [eV]   occ [0-1]
     0       -82.760       1.000
   ...
    79        -3.830       1.000
    80        -3.830       1.000
    81        -2.785       1.000
    82        -2.785       1.000
    83        -2.785       1.000
    84        -2.525       1.000
    85        -2.525       1.000
    86        -2.525       1.000
    87        -1.065       0.000
    88        -1.065       0.000
    89        -1.065       0.000
    90        -0.938       0.000
    91        -0.938       0.000
    92        -0.938       0.000
    93        -0.711       0.000
    94        -0.711       0.000
   ...
   113         2.543       0.000

kpt = [-0.333, 0.000, 0.000], weight = 0.111:
  Band      eig [eV]   occ [0-1]
     0       -82.760       1.000
   ...
    79        -3.682       1.000
    80        -3.563       1.000
    81        -2.868       1.000
    82        -2.746       1.000
    83        -2.731       1.000
    84        -2.685       1.000
    85        -2.631       1.000
    86        -2.590       1.000
    87        -1.030       0.000
    88        -1.010       0.000
    89        -0.962       0.000
    90        -0.909       0.000
    91        -0.861       0.000
    92        -0.846       0.000
    93        -0.799       0.000
    94        -0.766       0.000
   ...
   113         2.913       0.000

kpt = [-0.333, 0.333, 0.000], weight = 0.111:
  Band      eig [eV]   occ [0-1]
     0       -82.760       1.000
   ...
    79        -3.682       1.000
    80        -3.563       1.000
    81        -2.868       1.000
    82        -2.746       1.000
    83        -2.731       1.000
    84        -2.685       1.000
    85        -2.631       1.000
    86        -2.590       1.000
    87        -1.030       0.000
    88        -1.010       0.000
    89        -0.962       0.000
    90        -0.909       0.000
    91        -0.861       0.000
    92        -0.846       0.000
    93        -0.799       0.000
    94        -0.766       0.000
   ...
   113         2.913       0.000
(only showing first 3 out of 9 k-points)

Gap: 1.460 eV
Transition (v -> c):
  (s=0, k=0, n=86, [-0.33, -0.33, 0.00]) -> (s=0, k=8, n=87, [0.33, 0.33, 0.00])
Direct/indirect transitions are different
Direct gap: 1.460 eV
Transition at: (s=0, k=0, n=86, [-0.33, -0.33, 0.00])
