  ___ ___ ___ _ _ _
 |   |   |_  | | | |
 | | | | | . | | | |
 |__ |  _|___|_____| - 25.7.0
 |___|_|

User:   runerce@runepop-os
Date:   Mon Apr 20 11:17:07 2026
Arch:   x86_64
Pid:    13970
CWD:    /home/runerce/Desktop/DFT-project-2026
Python: 3.10.12
gpaw:   /home/runerce/Desktop/DFT-project-2026/.venv/lib/python3.10/site-packages/gpaw
_gpaw:  /home/runerce/Desktop/DFT-project-2026/.venv/lib/python3.10/site-packages/
        _gpaw.cpython-310-x86_64-linux-gnu.so
ase:    /home/runerce/Desktop/DFT-project-2026/.venv/lib/python3.10/site-packages/ase (version 3.28.0)
numpy:  /home/runerce/Desktop/DFT-project-2026/.venv/lib/python3.10/site-packages/numpy (version 2.2.6)
scipy:  /home/runerce/Desktop/DFT-project-2026/.venv/lib/python3.10/site-packages/scipy (version 1.15.3)
libxc:  2.x.y
units:  Angstrom and eV
cores: 1
OpenMP: False
OMP_NUM_THREADS: 1

input parameters:
  mode=PW(ecut=200),
  kpts=MonkhorstPack(size=(3, 3, 1), gamma=True),
  magmoms=array([[ 1.35074009e-17,  4.50000000e+00,  0.00000000e+00],
         [ 0.00000000e+00,  0.00000000e+00,  0.00000000e+00],
         [ 0.00000000e+00,  0.00000000e+00,  0.00000000e+00],
         [ 3.89711432e+00, -2.25000000e+00,  0.00000000e+00],
         [ 0.00000000e+00,  0.00000000e+00,  0.00000000e+00],
         [ 0.00000000e+00,  0.00000000e+00,  0.00000000e+00],
         [-3.89711432e+00, -2.25000000e+00,  0.00000000e+00],
         [ 0.00000000e+00,  0.00000000e+00,  0.00000000e+00],
         [ 0.00000000e+00,  0.00000000e+00,  0.00000000e+00]]),
  maxiter=50,
  occupations=Occupations(name='fermi-dirac', width=0.01, fixmagmom=False),
  parallel={'domain': 1, 'band': 1},
  spinpol=True,
  symmetry=Symmetry(point_group=False, time_reversal=False),
  xc=XC(name='LDA')

environment variables:
  GPAW_CPUPY=False,
  GPAW_MPI4PY=False,
  GPAW_NEW=False,
  GPAW_NO_C_EXTENSION=False,
  GPAW_TRACE=False,
  GPAW_USE_GPUS=False

Diagonalizing LCAO Hamiltonian
Converting LCAO to grid
                                       
                                       
                                       
                                       
                    I                  
                                       
             IMn       IMn             
                                       
                 Mn                    
        I         I          I         
                                       
                                       
                                       
                                       
                                       

Atomic positions and initial magnetic moments

Positions:
   0 Mn    -0.000000    0.000000    9.013716    ( 0.0000,  4.5000,  0.0000)
   1 I      2.082858    1.202539   10.663250    ( 0.0000,  0.0000,  0.0000)
   2 I     -0.000000    2.405077    7.364181    ( 0.0000,  0.0000,  0.0000)
   3 Mn    -2.082858    3.607616    9.013716    ( 3.8971, -2.2500,  0.0000)
   4 I     -0.000000    4.810154   10.663250    ( 0.0000,  0.0000,  0.0000)
   5 I      4.165716    2.405077    7.364181    ( 0.0000,  0.0000,  0.0000)
   6 Mn     2.082858    3.607616    9.013716    (-3.8971, -2.2500,  0.0000)
   7 I     -2.082858    1.202539   10.663250    ( 0.0000,  0.0000,  0.0000)
   8 I     -4.165716    2.405077    7.364181    ( 0.0000,  0.0000,  0.0000)

Unit cell:
           periodic     x           y           z      points  spacing
  1. axis:    yes    6.248574    3.607616    0.000000    24     0.2604
  2. axis:    yes   -6.248574    3.607616    0.000000    24     0.2604
  3. axis:    yes    0.000000    0.000000   18.027431    60     0.3005

  Lengths:   7.215232   7.215232  18.027431
  Angles:   90.000000  90.000000 120.000000

Effective grid spacing dv^(1/3) = 0.2865

symmetry:
  number of symmetries: 1
  rotations: [
    [[ 1,  0,  0], [ 0,  1,  0], [ 0,  0,  1]]]

bz sampling:
  number of bz points: 9
  number of ibz points: 9
  monkhorst-pack size: [3, 3, 1]
  monkhorst-pack shift: [0, 0, 0]
  points and weights: [
    [[ -0.33333333,  -0.33333333,   0.00000000], 0.11111111],  # 0
    [[ -0.33333333,   0.00000000,   0.00000000], 0.11111111],  # 1
    [[ -0.33333333,   0.33333333,   0.00000000], 0.11111111],  # 2
    [[  0.00000000,  -0.33333333,   0.00000000], 0.11111111],  # 3
    [[  0.00000000,   0.00000000,   0.00000000], 0.11111111],  # 4
    [[  0.00000000,   0.33333333,   0.00000000], 0.11111111],  # 5
    [[  0.33333333,  -0.33333333,   0.00000000], 0.11111111],  # 6
    [[  0.33333333,   0.00000000,   0.00000000], 0.11111111],  # 7
    [[  0.33333333,   0.33333333,   0.00000000], 0.11111111]]  # 8

plane wave coefficients: 5219
cutoff: 200.0 eV

spin-components: 4  # (non-collinear spins)
bands: 114
spin-degeneracy: 1
dtype: complex128

memory:
    storage: CPU
    wave functions: 170_595_072  # bytes  (170_595_072 per core)

parallelization:
    kpt:    1
    domain: 1
    band:   1

density:
  valence electrons: 87.0
  components: 4
  grid points: [24 24 60]
  charge: 0.0  # |e|

potential:
  grid points: [24 24 60]

species:
  Mn:
    name: Manganese
    id: 0d715a8018be061a6e9ea6f2d364ac92
    Z: 25.0
    valence: 15
    core: 10
    charge: 0.0
    file: /home/runerce/Desktop/DFT-project-2026/.venv/lib/python3.10/site-packages/gpaw_data/setups/Mn.LDA.gz
    compensation charges: {type: gauss,
                           rc: 0.38,
                           lmax: 2}
    cutoffs: {filter: 2.14,
              core: 0.86}
    projectors:
      #              energy  rcut
      - 3s(2.00)   -85.387   1.275
      - 4s(2.00)    -5.282   1.275
      - 3p(6.00)   -54.493   1.281
      - 4p(0.00)    -1.471   1.281
      - 3d(5.00)    -7.009   1.138
      -  d          20.203   1.138
  
    # Using partial waves for Mn as LCAO basis

  I:
    name: Iodine
    id: b559721c0c096a7b4c8fc0e0f4de5cf4
    Z: 53.0
    valence: 7
    core: 46
    charge: 0.0
    file: /home/runerce/Desktop/DFT-project-2026/.venv/lib/python3.10/site-packages/gpaw_data/setups/I.LDA.gz
    compensation charges: {type: gauss,
                           rc: 0.37,
                           lmax: 2}
    cutoffs: {filter: 2.06,
              core: 2.90}
    projectors:
      #              energy  rcut
      - 5s(2.00)   -17.626   1.164
      - 5p(5.00)    -7.241   1.164
      -  s           9.585   1.164
      -  p          19.970   1.164
      -  d           0.000   1.164
  
    # Using partial waves for I as LCAO basis

Reference energy: -1254667.327294  # eV

eigensolver:
  {'converge_bands': 'occupied', 'name': 'Davidson', 'niter': 2}
Density mixing:
  Method: difference
  Backend: pulay
  Linear mixing parameter: 0.05
  old densities: 5
  Damping of long wavelength oscillations: 50
occupation numbers:
  Fermi-Dirac:
    width: 0.0100  # eV
  

<gpaw.new.pw.paw_poisson.SlowPAWPoissonSolver object at 0x79f4f5230070>
xc functional:
  name: None

convergence criteria:
- Maximum [total energy] change in last 3 cyles: 0.0005 eV / valence electron
- Maximum integral of absolute [dens]ity change: 0.0001 electrons / valence electron
- Maximum integral of absolute [eigenst]ate change: 4e-08 eV^2 / valence electron
maximum number of iterations: 50

     iter     time        total  log10-change:
                         energy   eigst   dens
iter:   1 11:17:43   -43.570011   -0.80          -0.0,+0.0,+0.0
iter:   2 11:17:59   -43.438125   -1.86  -1.50   -0.0,-0.0,+0.0
iter:   3 11:18:16   -43.211521   -2.05  -1.52   -0.0,+0.0,+0.0
iter:   4 11:18:33   -43.180613   -2.34  -1.60   -0.0,+0.0,+0.0
iter:   5 11:18:49   -43.233544   -2.39  -1.79   -0.0,+0.0,+0.0
iter:   6 11:19:06   -43.257425   -2.90  -2.29   +0.0,+0.0,+0.0
iter:   7 11:19:23   -43.193266   -2.86  -2.40   +0.0,+0.0,+0.0
iter:   8 11:19:40   -43.202588   -2.91  -2.70   +0.0,+0.0,+0.0
iter:   9 11:19:56   -43.154755   -3.40  -2.55   +0.0,+0.0,+0.0
iter:  10 11:20:13   -43.193022   -3.69  -3.03   -0.0,+0.0,+0.0
iter:  11 11:20:30 [32m  -43.191882[0mc  -4.08  -3.15   +0.0,+0.0,+0.0
iter:  12 11:20:46 [32m  -43.191820[0mc  -4.37  -3.60   -0.0,+0.0,+0.0
iter:  13 11:21:03 [32m  -43.191991[0mc  -4.57  -3.67   -0.0,+0.0,+0.0
iter:  14 11:21:20 [32m  -43.192430[0mc  -4.32  -3.57   -0.0,+0.0,+0.0
iter:  15 11:21:37 [32m  -43.191823[0mc  -4.70  -3.28   -0.0,+0.0,+0.0
iter:  16 11:21:53 [32m  -43.191952[0mc  -4.96  -3.94   -0.0,+0.0,+0.0
iter:  17 11:22:10 [32m  -43.191818[0mc  -5.16  -3.66   -0.0,+0.0,+0.0
iter:  18 11:22:27 [32m  -43.191819[0mc  -5.53  [32m-4.48[0mc  -0.0,+0.0,+0.0
iter:  19 11:22:43 [32m  -43.191820[0mc  -5.72  [32m-4.49[0mc  -0.0,+0.0,+0.0
iter:  20 11:23:00 [32m  -43.191820[0mc  -5.89  [32m-4.56[0mc  -0.0,+0.0,+0.0
iter:  21 11:23:17 [32m  -43.191820[0mc  -6.04  [32m-4.89[0mc  -0.0,+0.0,+0.0
iter:  22 11:23:33 [32m  -43.191820[0mc  -6.18  [32m-4.93[0mc  -0.0,+0.0,+0.0
iter:  23 11:23:50 [32m  -43.191820[0mc  -6.32  [32m-5.27[0mc  -0.0,+0.0,+0.0
iter:  24 11:24:07 [32m  -43.191820[0mc  -6.48  [32m-5.35[0mc  -0.0,+0.0,+0.0
iter:  25 11:24:24 [32m  -43.191820[0mc  -6.62  [32m-5.60[0mc  +0.0,+0.0,+0.0
---

timing:  # [seconds]
  Total: 3459.418  # ━━━━━━━━━━━━━━━━━━━━━━━━━━━━━━━━━━━━━━━━━━━━━━━━━━━━━━━━
  Init:    19.174  # ╸
  SCF:    424.030  # ━━━━━━━

Max RSS: 706.660  # MiB
mc  +0.0,+0.0,-0.0
iter:  30 11:25:50 [32m  -43.191820[0mc  -7.28  [32m-6.16[0mc  +0.0,+0.0,+0.0
iter:  31 11:26:07 [32m  -43.191820[0mc [32m -7.42[0mc [32m-6.26[0mc  +0.0,+0.0,-0.0
Converged in 31 steps
Energy contributions relative to reference atoms: (reference = -1254667.327294)

kinetic:          62.124202
coulomb:         -53.497933
zero:             -0.205915
external:          0.000000
xc:              -51.612175
entropy:          -0.000000
spinorbit:         0.000000
----------------------------
Free energy:     -43.191820
Extrapolated:    -43.191820

dipole moment: [61.522134, 19.550014, 0.000480]  # |e|*Ang

total magnetic moment: [0.000000, 0.002187, -0.000000]

local magnetic moments: [
  [ 0.000000,  4.203992, -0.000000],  # Mn 0
  [ 0.000001,  0.000013,  0.000000],  # I  1
  [ 0.000000,  0.000011, -0.000000],  # I  2
  [ 3.641292, -2.101067,  0.000000],  # Mn 3
  [-0.000000,  0.000011,  0.000000],  # I  4
  [-0.000001,  0.000013,  0.000000],  # I  5
  [-3.641292, -2.101067, -0.000000],  # Mn 6
  [-0.000001,  0.000013, -0.000000],  # I  7
  [ 0.000001,  0.000013, -0.000000]]  # I  8


Fermi level: -2.031

kpt = [-0.333, -0.333, 0.000], weight = 0.111:
  Band      eig [eV]   occ [0-1]
     0       -82.839       1.000
   ...
    79        -3.831       1.000
    80        -3.831       1.000
    81        -2.799       1.000
    82        -2.799       1.000
    83        -2.799       1.000
    84        -2.540       1.000
    85        -2.540       1.000
    86        -2.540       1.000
    87        -1.073       0.000
    88        -1.073       0.000
    89        -1.073       0.000
    90        -0.948       0.000
    91        -0.948       0.000
    92        -0.948       0.000
    93        -0.723       0.000
    94        -0.723       0.000
   ...
   113         2.543       0.000

kpt = [-0.333, 0.000, 0.000], weight = 0.111:
  Band      eig [eV]   occ [0-1]
     0       -82.839       1.000
   ...
    79        -3.684       1.000
    80        -3.567       1.000
    81        -2.884       1.000
    82        -2.762       1.000
    83        -2.746       1.000
    84        -2.700       1.000
    85        -2.647       1.000
    86        -2.606       1.000
    87        -1.037       0.000
    88        -1.021       0.000
    89        -0.974       0.000
    90        -0.918       0.000
    91        -0.874       0.000
    92        -0.862       0.000
    93        -0.812       0.000
    94        -0.778       0.000
   ...
   113         2.914       0.000

kpt = [-0.333, 0.333, 0.000], weight = 0.111:
  Band      eig [eV]   occ [0-1]
     0       -82.839       1.000
   ...
    79        -3.684       1.000
    80        -3.567       1.000
    81        -2.884       1.000
    82        -2.762       1.000
    83        -2.746       1.000
    84        -2.700       1.000
    85        -2.647       1.000
    86        -2.606       1.000
    87        -1.037       0.000
    88        -1.021       0.000
    89        -0.974       0.000
    90        -0.918       0.000
    91        -0.874       0.000
    92        -0.862       0.000
    93        -0.812       0.000
    94        -0.778       0.000
   ...
   113         2.914       0.000
(only showing first 3 out of 9 k-points)

Gap: 1.467 eV
Transition (v -> c):
  (s=0, k=0, n=86, [-0.33, -0.33, 0.00]) -> (s=0, k=8, n=87, [0.33, 0.33, 0.00])
Direct/indirect transitions are different
Direct gap: 1.467 eV
Transition at: (s=0, k=8, n=86, [0.33, 0.33, 0.00])
