  ___ ___ ___ _ _ _
 |   |   |_  | | | |
 | | | | | . | | | |
 |__ |  _|___|_____| - 25.7.1b1
 |___|_|

User:   s260438@n-62-29-12
Date:   Mon May  4 11:51:42 2026
Arch:   x86_64
Pid:    255208
CWD:    /zhome/ae/1/229651/VAl2Se4_GS
Python: 3.11.7
gpaw:   /zhome/ae/1/229651/venv/gpaw/gpaw (fd205d5876)
_gpaw:  /zhome/ae/1/229651/venv/gpaw/
        _gpaw.cpython-311-x86_64-linux-gnu.so (fd205d5876)
ase:    /zhome/ae/1/229651/venv/ase/ase (version 3.28.0b1-536df4049d)
numpy:  /zhome/ae/1/229651/venv/lib/python3.11/site-packages/numpy (version 2.4.2)
scipy:  /zhome/ae/1/229651/venv/lib/python3.11/site-packages/scipy (version 1.17.0)
libxc:  6.1.0
units:  Angstrom and eV
cores: 16
OpenMP: False
OMP_NUM_THREADS: 1

input parameters:
  mode=PW(ecut=600),
  kpts=MonkhorstPack(size=(6, 6, 1), gamma=True),
  magmoms=array([[ 2.54110132e-32,  4.50000000e+00, -4.14993338e-16],
         [ 0.00000000e+00,  0.00000000e+00,  0.00000000e+00],
         [ 0.00000000e+00,  0.00000000e+00,  0.00000000e+00],
         [ 0.00000000e+00,  0.00000000e+00,  0.00000000e+00],
         [ 0.00000000e+00,  0.00000000e+00,  0.00000000e+00],
         [ 0.00000000e+00,  0.00000000e+00,  0.00000000e+00],
         [ 0.00000000e+00,  0.00000000e+00,  0.00000000e+00],
         [ 2.38629429e-16, -2.25000000e+00, -3.89711432e+00],
         [ 0.00000000e+00,  0.00000000e+00,  0.00000000e+00],
         [ 0.00000000e+00,  0.00000000e+00,  0.00000000e+00],
         [ 0.00000000e+00,  0.00000000e+00,  0.00000000e+00],
         [ 0.00000000e+00,  0.00000000e+00,  0.00000000e+00],
         [ 0.00000000e+00,  0.00000000e+00,  0.00000000e+00],
         [ 0.00000000e+00,  0.00000000e+00,  0.00000000e+00],
         [-2.38629429e-16, -2.25000000e+00,  3.89711432e+00],
         [ 0.00000000e+00,  0.00000000e+00,  0.00000000e+00],
         [ 0.00000000e+00,  0.00000000e+00,  0.00000000e+00],
         [ 0.00000000e+00,  0.00000000e+00,  0.00000000e+00],
         [ 0.00000000e+00,  0.00000000e+00,  0.00000000e+00],
         [ 0.00000000e+00,  0.00000000e+00,  0.00000000e+00],
         [ 0.00000000e+00,  0.00000000e+00,  0.00000000e+00]]),
  maxiter=200,
  mixer=Mixer(backend='pulay', beta=0.1, method='sum', nmaxold=5, weight=50),
  occupations=Occupations(name='fermi-dirac', width=0.01, fixmagmom=False),
  parallel={'domain': 4, 'kpt': 4, 'band': 1},
  soc=False,
  spinpol=True,
  symmetry=Symmetry(point_group=False, time_reversal=False),
  xc=XC(name='LDA')

environment variables:
  GPAW_CPUPY=False,
  GPAW_DEBUG=False,
  GPAW_INITIALIZE_MPI=True,
  GPAW_MPI_BACKEND='cgpaw',
  GPAW_NEW=0,
  GPAW_NO_C_EXTENSION=False,
  GPAW_NO_GPU_MPI=False,
  GPAW_TRACE=False,
  GPAW_USE_GPUS=False

Diagonalizing LCAO Hamiltonian
Converting LCAO to pw mode
                                      
                                      
                                      
                                      
                   Se                 
                                      
        Al   Se   Al  Se    Al        
                                      
                                      
        Se        Se        Se        
              V        V              
                   Se                 
                 V                    
             Se       Se              
                   Al                 
                                      
             Al       Al              
        Se        Se        Se        
                                      
                                      
                                      
                                      
                                      

Atomic positions and initial magnetic moments

Positions:
   0 V     -0.000000    0.000000   19.727623    ( 0.0000,  4.5000, -0.0000)
   1 Al     1.948825    1.125155   16.064978    ( 0.0000,  0.0000,  0.0000)
   2 Al    -0.000000    2.250309   23.390268    ( 0.0000,  0.0000,  0.0000)
   3 Se     1.948825    1.125155   18.409705    ( 0.0000,  0.0000,  0.0000)
   4 Se    -0.000000    2.250309   21.045542    ( 0.0000,  0.0000,  0.0000)
   5 Se     1.948825    1.125155   24.461730    ( 0.0000,  0.0000,  0.0000)
   6 Se    -0.000000    2.250309   14.993516    ( 0.0000,  0.0000,  0.0000)
   7 V     -1.948825    3.375464   19.727623    ( 0.0000, -2.2500, -3.8971)
   8 Al    -0.000000    4.500619   16.064978    ( 0.0000,  0.0000,  0.0000)
   9 Al     3.897650    2.250309   23.390268    ( 0.0000,  0.0000,  0.0000)
  10 Se    -0.000000    4.500619   18.409705    ( 0.0000,  0.0000,  0.0000)
  11 Se     3.897650    2.250309   21.045542    ( 0.0000,  0.0000,  0.0000)
  12 Se    -0.000000    4.500619   24.461730    ( 0.0000,  0.0000,  0.0000)
  13 Se     3.897650    2.250309   14.993516    ( 0.0000,  0.0000,  0.0000)
  14 V      1.948825    3.375464   19.727623    (-0.0000, -2.2500,  3.8971)
  15 Al    -1.948825    1.125155   16.064978    ( 0.0000,  0.0000,  0.0000)
  16 Al    -3.897650    2.250309   23.390268    ( 0.0000,  0.0000,  0.0000)
  17 Se    -1.948825    1.125155   18.409705    ( 0.0000,  0.0000,  0.0000)
  18 Se    -3.897650    2.250309   21.045542    ( 0.0000,  0.0000,  0.0000)
  19 Se    -1.948825    1.125155   24.461730    ( 0.0000,  0.0000,  0.0000)
  20 Se    -3.897650    2.250309   14.993516    ( 0.0000,  0.0000,  0.0000)

Unit cell:
           periodic     x           y           z      points  spacing
  1. axis:    yes    5.846475    3.375464    0.000000    40     0.1462
  2. axis:    yes   -5.846475    3.375464    0.000000    40     0.1462
  3. axis:    yes    0.000000    0.000000   39.455246   224     0.1761

  Lengths:   6.750928   6.750928  39.455246
  Angles:   90.000000  90.000000 120.000000

Effective grid spacing dv^(1/3) = 0.1632

symmetry:
  number of symmetries: 1
  rotations: [
    [[ 1,  0,  0], [ 0,  1,  0], [ 0,  0,  1]]]

bz sampling:
  number of bz points: 36
  number of ibz points: 36
  monkhorst-pack size: [6, 6, 1]
  monkhorst-pack shift: [0.08333333333333333, 0.08333333333333333, 0.0]
  points and weights: [
    [[ -0.33333333,  -0.33333333,   0.00000000], 0.02777778],  # 0
    [[ -0.33333333,  -0.16666667,   0.00000000], 0.02777778],  # 1
    [[ -0.33333333,   0.00000000,   0.00000000], 0.02777778],  # 2
    [[ -0.33333333,   0.16666667,   0.00000000], 0.02777778],  # 3
    [[ -0.33333333,   0.33333333,   0.00000000], 0.02777778],  # 4
    [[ -0.33333333,   0.50000000,   0.00000000], 0.02777778],  # 5
    [[ -0.16666667,  -0.33333333,   0.00000000], 0.02777778],  # 6
    [[ -0.16666667,  -0.16666667,   0.00000000], 0.02777778],  # 7
    [[ -0.16666667,   0.00000000,   0.00000000], 0.02777778],  # 8
    [[ -0.16666667,   0.16666667,   0.00000000], 0.02777778],  # 9
    # ...
    [[  0.50000000,   0.50000000,   0.00000000], 0.02777778]]  # 35

plane wave coefficients: 52147
cutoff: 600.0 eV

spin-components: 4 (non-collinear spins)
bands: 164
projectors: 108
spin-degeneracy: 1
dtype: complex128

memory:
    storage: CPU
    wave functions: 9_808_763_904 bytes (613_047_744 per core)
    projectors: 2_751_238_656 bytes (171_952_416 per core)

parallelization:
    kpt:    4
    domain: 4
    band:   1

density:
  valence electrons: 129.0
  components: 4
  grid points: [ 40  40 224]
  charge: 0.0  # |e|

potential:
  grid points: [ 40  40 224]

species:
  V:
    name: Vanadium
    id: 7939ce69e6bb5930668dfcf9bb1979c3
    Z: 23.0
    valence: 13
    core: 10
    charge: 0.0
    file: /zhome/ae/1/229651/venv/lib/python3.11/site-packages/gpaw_data/setups/V.LDA.gz
    compensation charges: {type: gauss,
                           rc: 0.37,
                           lmax: 2}
    cutoffs: {filter: 2.14,
              core: 0.96}
    projectors:
      #              energy  rcut
      - 3s(2.00)   -69.819   1.254
      - 4s(2.00)    -4.846   1.254
      - 3p(6.00)   -43.961   1.281
      - 4p(0.00)    -1.526   1.281
      - 3d(3.00)    -5.381   1.169
      -  d          21.830   1.169
  
    # Using partial waves for V as LCAO basis

  Al:
    name: Aluminium
    id: 2e6447feaea722efcff26bf034b25f30
    Z: 13.0
    valence: 3
    core: 10
    charge: 0.0
    file: /zhome/ae/1/229651/venv/lib/python3.11/site-packages/gpaw_data/setups/Al.LDA.gz
    compensation charges: {type: gauss,
                           rc: 0.34,
                           lmax: 2}
    cutoffs: {filter: 1.91,
              core: 2.36}
    projectors:
      #              energy  rcut
      - 3s(2.00)    -7.830   1.085
      - 3p(1.00)    -2.783   1.085
      -  s          19.382   1.085
      -  p          24.428   1.085
      -  d           0.000   1.085
  
    # Using partial waves for Al as LCAO basis

  Se:
    name: Selenium
    id: 32bc71fdf0f79e2eec071fc2341e94af
    Z: 34.0
    valence: 6
    core: 28
    charge: 0.0
    file: /zhome/ae/1/229651/venv/lib/python3.11/site-packages/gpaw_data/setups/Se.LDA.gz
    compensation charges: {type: gauss,
                           rc: 0.27,
                           lmax: 2}
    cutoffs: {filter: 1.77,
              core: 2.67}
    projectors:
      #              energy  rcut
      - 4s(2.00)   -17.472   0.847
      - 4p(4.00)    -6.656   1.005
      -  s           9.739   0.847
      -  p          20.555   1.005
      -  d           0.000   0.847
  
    # Using partial waves for Se as LCAO basis

Reference energy: -908979.417034  # eV

eigensolver:
  {'converge_bands': 'occupied', 'name': 'PPCG', 'niter': 2}
Density mixing:
  Method: sum
  Backend: pulay
  Linear mixing parameter: 0.1
  old densities: 5
  Damping of long wavelength oscillations: 50
occupation numbers:
  Fermi-Dirac:
    width: 0.0100  # eV
  

<gpaw.new.pw.paw_poisson.SlowPAWPoissonSolver object at 0x7fcd3b212110>
xc functional:
  name: None

convergence criteria:
- Maximum [total energy] change in last 3 cyles: 0.0005 eV / valence electron
- Maximum integral of absolute [dens]ity change: 0.0001 electrons / valence electron
- Maximum integral of absolute [eigenst]ate change: 4e-08 eV^2 / valence electron
maximum number of iterations: 200

     iter     time        total  log10-change:
                         energy   eigst   dens
iter:   1 12:03:29  -143.214327   +0.96          +0.0,+0.0,-0.0
iter:   2 12:11:45  -123.139357   +0.67  -0.93   -0.0,-0.0,+0.0
iter:   3 12:20:04  -120.700967   -0.01  -0.99   -0.0,-0.9,+0.0
iter:   4 12:28:20  -117.896991   -0.07  -1.08   +0.0,+1.2,-0.0
iter:   5 12:36:39  -117.602360   -0.67  -1.23   -0.0,+1.0,+0.0
iter:   6 12:44:56  -117.601653   -0.90  -1.34   +0.0,+0.9,+0.0
iter:   7 12:53:18  -117.604229c  -1.27  -1.65   +0.0,+0.9,+0.0
iter:   8 13:01:34  -117.566560c  -1.65  -1.87   +0.0,+0.8,-0.0
iter:   9 13:09:48  -117.553437c  -2.06  -2.05   +0.0,+0.8,+0.0
iter:  10 13:18:03  -117.553434c  -2.82  -2.40   +0.0,+0.8,+0.0
iter:  11 13:26:19  -117.554491c  -2.80  -2.50   +0.0,+0.8,+0.0
iter:  12 13:34:33  -117.554689c  -3.37  -2.86   +0.0,+0.8,+0.0
iter:  13 13:42:51  -117.555085c  -3.73  -3.10   +0.0,+0.8,+0.0
iter:  14 13:51:11  -117.555141c  -4.39  -3.24   +0.0,+0.8,+0.0
iter:  15 13:59:28  -117.555359c  -4.41  -3.34   +0.0,+0.8,+0.0
iter:  16 14:07:42  -117.555392c  -4.98  -3.82   -0.0,+0.8,+0.0
iter:  17 14:15:58  -117.555422c  -5.37  -4.03c  -0.0,+0.8,+0.0
iter:  18 14:24:14  -117.555437c  -5.63  -4.11c  -0.0,+0.8,+0.0
iter:  19 14:32:27  -117.555447c  -5.85  -4.24c  -0.0,+0.8,+0.0
iter:  20 14:40:43  -117.555455c  -6.01  -4.40c  -0.0,+0.7,+0.0
iter:  21 14:48:57  -117.555459c  -6.25  -4.59c  -0.0,+0.7,+0.0
iter:  22 14:57:19  -117.555467c  -6.38  -4.70c  -0.0,+0.7,+0.0
iter:  23 15:05:36  -117.555477c  -6.38  -4.88c  -0.0,+0.7,+0.0
iter:  24 15:13:56  -117.555485c  -6.42  -5.00c  -0.0,+0.7,+0.0
iter:  25 15:22:16  -117.555492c  -6.51  -5.18c  -0.0,+0.7,+0.0
iter:  26 15:30:36  -117.555503c  -6.47  -5.29c  -0.0,+0.7,+0.0
iter:  27 15:38:57  -117.555509c  -6.56  -5.52c  -0.0,+0.7,+0.0
iter:  28 15:47:16  -117.555509c  -6.91  -5.54c  -0.0,+0.7,+0.0
iter:  29 15:55:34  -117.555512c  -7.02  -5.48c  -0.0,+0.7,+0.0
iter:  30 16:03:51  -117.555513c  -7.31  -5.52c  -0.0,+0.7,+0.0
iter:  31 16:12:09  -117.555509c  -7.76c -5.47c  -0.0,+0.7,+0.0
Converged in 31 steps
Energy contributions relative to reference atoms: (reference = -908979.417034)

kinetic:         107.205942
coulomb:        -101.454376
zero:              0.236726
external:          0.000000
xc:             -123.543174
entropy:          -0.001252
spinorbit:         0.000000
----------------------------
Free energy:    -117.556135
Extrapolated:   -117.555509

dipole moment: [-0.000000, -138.959816, 0.001721]  # |e|*Ang

total magnetic moment: [-0.000000, 0.716346, 0.000000]

local magnetic moments: [
  [ 0.000000,  2.244747,  0.000000],  # V  0
  [-0.000000,  0.000788,  0.000050],  # Al 1
  [ 0.000000,  0.000862,  0.000000],  # Al 2
  [-0.000000, -0.002755,  0.000005],  # Se 3
  [ 0.000000, -0.002746,  0.000000],  # Se 4
  [ 0.000000,  0.000371,  0.000022],  # Se 5
  [ 0.000000,  0.000404,  0.000000],  # Se 6
  [-0.000000, -0.820961, -2.073191],  # V  7
  [ 0.000000,  0.000862,  0.000000],  # Al 8
  [-0.000000,  0.000788, -0.000050],  # Al 9
  [ 0.000000, -0.002746, -0.000000],  # Se 10
  [-0.000000, -0.002755, -0.000005],  # Se 11
  [ 0.000000,  0.000404, -0.000000],  # Se 12
  [ 0.000000,  0.000371, -0.000022],  # Se 13
  [-0.000000, -0.820961,  2.073191],  # V  14
  [-0.000000,  0.000788, -0.000050],  # Al 15
  [-0.000000,  0.000788,  0.000050],  # Al 16
  [-0.000000, -0.002755, -0.000005],  # Se 17
  [-0.000000, -0.002755,  0.000005],  # Se 18
  [ 0.000000,  0.000371, -0.000022],  # Se 19
  [ 0.000000,  0.000371,  0.000022]]  # Se 20


Fermi level: -0.813

kpt = [-0.333, -0.333, 0.000], weight = 0.028:
  Band      eig [eV]   occ [0-1]
     0       -65.046       1.000
   ...
   121        -1.395       1.000
   122        -1.394       1.000
   123        -1.336       1.000
   124        -1.335       1.000
   125        -1.312       1.000
   126        -0.878       0.998
   127        -0.876       0.998
   128        -0.874       0.998
   129        -0.197       0.000
   130        -0.184       0.000
   131        -0.184       0.000
   132        -0.107       0.000
   133        -0.107       0.000
   134        -0.096       0.000
   135        -0.053       0.000
   136        -0.053       0.000
   ...
   163         1.807       0.000

kpt = [-0.333, -0.167, 0.000], weight = 0.028:
  Band      eig [eV]   occ [0-1]
     0       -65.046       1.000
   ...
   121        -1.373       1.000
   122        -1.354       1.000
   123        -1.245       1.000
   124        -1.214       1.000
   125        -1.092       1.000
   126        -0.915       1.000
   127        -0.896       1.000
   128        -0.848       0.971
   129        -0.174       0.000
   130        -0.144       0.000
   131        -0.039       0.000
   132        -0.037       0.000
   133         0.057       0.000
   134         0.086       0.000
   135         0.111       0.000
   136         0.137       0.000
   ...
   163         1.758       0.000

kpt = [-0.333, 0.000, 0.000], weight = 0.028:
  Band      eig [eV]   occ [0-1]
     0       -65.046       1.000
   ...
   121        -1.311       1.000
   122        -1.286       1.000
   123        -1.148       1.000
   124        -1.095       1.000
   125        -0.970       1.000
   126        -0.965       1.000
   127        -0.933       1.000
   128        -0.861       0.991
   129         0.049       0.000
   130         0.077       0.000
   131         0.143       0.000
   132         0.144       0.000
   133         0.184       0.000
   134         0.205       0.000
   135         0.226       0.000
   136         0.264       0.000
   ...
   163         1.779       0.000
(only showing first 3 out of 36 k-points)

No gap
No difference between direct/indirect transitions
