  ___ ___ ___ _ _ _
 |   |   |_  | | | |
 | | | | | . | | | |
 |__ |  _|___|_____| - 25.7.1b1
 |___|_|

User:   s260438@n-62-29-14
Date:   Mon May  4 19:25:42 2026
Arch:   x86_64
Pid:    393598
CWD:    /zhome/ae/1/229651/MnTe2_SOC_opposite_chirality
Python: 3.11.7
gpaw:   /zhome/ae/1/229651/venv/gpaw/gpaw (fd205d5876)
_gpaw:  /zhome/ae/1/229651/venv/gpaw/
        _gpaw.cpython-311-x86_64-linux-gnu.so (fd205d5876)
ase:    /zhome/ae/1/229651/venv/ase/ase (version 3.28.0b1-536df4049d)
numpy:  /zhome/ae/1/229651/venv/lib/python3.11/site-packages/numpy (version 2.4.2)
scipy:  /zhome/ae/1/229651/venv/lib/python3.11/site-packages/scipy (version 1.17.0)
libxc:  6.1.0
units:  Angstrom and eV
cores: 16
OpenMP: False
OMP_NUM_THREADS: 1

input parameters:
  mode=PW(ecut=600),
  kpts=MonkhorstPack(size=(12, 12, 1), gamma=True),
  magmoms=array([[ 0.        ,  2.8       ,  0.        ],
         [ 0.        ,  0.        ,  0.        ],
         [ 0.        ,  0.        ,  0.        ],
         [-2.42487113, -1.4       ,  0.        ],
         [ 0.        ,  0.        ,  0.        ],
         [ 0.        ,  0.        ,  0.        ],
         [ 2.42487113, -1.4       ,  0.        ],
         [ 0.        ,  0.        ,  0.        ],
         [ 0.        ,  0.        ,  0.        ]]),
  maxiter=100,
  mixer=Mixer(backend='pulay', beta=0.05, method='sum', nmaxold=5, weight=100),
  occupations=Occupations(name='fermi-dirac', width=0.01, fixmagmom=False),
  parallel={'domain': 4, 'kpt': 4, 'band': 1},
  soc=True,
  spinpol=True,
  symmetry=Symmetry(point_group=False, time_reversal=False),
  xc=XC(name='LDA')

environment variables:
  GPAW_CPUPY=False,
  GPAW_DEBUG=False,
  GPAW_INITIALIZE_MPI=True,
  GPAW_MPI_BACKEND='cgpaw',
  GPAW_NEW=0,
  GPAW_NO_C_EXTENSION=False,
  GPAW_NO_GPU_MPI=False,
  GPAW_TRACE=False,
  GPAW_USE_GPUS=False

Diagonalizing LCAO Hamiltonian
Converting LCAO to pw mode
                            
                            
                            
                            
              Te            
                            
        Ten      Ten        
                            
            MnTe            
                            
        Te       Te         
                            
                            
                            
                            

Atomic positions and initial magnetic moments

Positions:
   0 Mn     0.000000    0.000000    9.112691    ( 0.0000,  2.8000,  0.0000)
   1 Te     1.830032    1.056570   10.757277    ( 0.0000,  0.0000,  0.0000)
   2 Te     1.830032    1.056570    7.468106    ( 0.0000,  0.0000,  0.0000)
   3 Mn    -1.830032    3.169709    9.112691    (-2.4249, -1.4000,  0.0000)
   4 Te    -0.000000    4.226279   10.757277    ( 0.0000,  0.0000,  0.0000)
   5 Te    -0.000000    4.226279    7.468106    ( 0.0000,  0.0000,  0.0000)
   6 Mn     1.830032    3.169709    9.112691    ( 2.4249, -1.4000,  0.0000)
   7 Te    -1.830032    1.056570   10.757277    ( 0.0000,  0.0000,  0.0000)
   8 Te    -1.830032    1.056570    7.468106    ( 0.0000,  0.0000,  0.0000)

Unit cell:
           periodic     x           y           z      points  spacing
  1. axis:    yes    5.490097    3.169709    0.000000    36     0.1525
  2. axis:    yes   -5.490097    3.169709    0.000000    36     0.1525
  3. axis:    yes    0.000000    0.000000   18.225383   105     0.1736

  Lengths:   6.339419   6.339419  18.225383
  Angles:   90.000000  90.000000 120.000000

Effective grid spacing dv^(1/3) = 0.1670

symmetry:
  number of symmetries: 1
  rotations: [
    [[ 1,  0,  0], [ 0,  1,  0], [ 0,  0,  1]]]

bz sampling:
  number of bz points: 144
  number of ibz points: 144
  monkhorst-pack size: [12, 12, 1]
  monkhorst-pack shift: [0.041666666666666664, 0.041666666666666664, 0.0]
  points and weights: [
    [[ -0.41666667,  -0.41666667,   0.00000000], 0.00694444],  # 0
    [[ -0.41666667,  -0.33333333,   0.00000000], 0.00694444],  # 1
    [[ -0.41666667,  -0.25000000,   0.00000000], 0.00694444],  # 2
    [[ -0.41666667,  -0.16666667,   0.00000000], 0.00694444],  # 3
    [[ -0.41666667,  -0.08333333,   0.00000000], 0.00694444],  # 4
    [[ -0.41666667,  -0.00000000,   0.00000000], 0.00694444],  # 5
    [[ -0.41666667,   0.08333333,   0.00000000], 0.00694444],  # 6
    [[ -0.41666667,   0.16666667,   0.00000000], 0.00694444],  # 7
    [[ -0.41666667,   0.25000000,   0.00000000], 0.00694444],  # 8
    [[ -0.41666667,   0.33333333,   0.00000000], 0.00694444],  # 9
    # ...
    [[  0.50000000,   0.50000000,   0.00000000], 0.00694444]]  # 143

plane wave coefficients: 21229
cutoff: 600.0 eV

spin-components: 4 (non-collinear spins)
bands: 106
projectors: 48
spin-degeneracy: 1
dtype: complex128

memory:
    storage: CPU
    wave functions: 10_328_721_408 bytes (645_545_088 per core)
    projectors: 2_825_782_272 bytes (176_611_392 per core)

parallelization:
    kpt:    4
    domain: 4
    band:   1

density:
  valence electrons: 81.0
  components: 4
  grid points: [ 36  36 105]
  charge: 0.0  # |e|

potential:
  grid points: [ 36  36 105]

species:
  Mn:
    name: Manganese
    id: 0d715a8018be061a6e9ea6f2d364ac92
    Z: 25.0
    valence: 15
    core: 10
    charge: 0.0
    file: /zhome/ae/1/229651/venv/lib/python3.11/site-packages/gpaw_data/setups/Mn.LDA.gz
    compensation charges: {type: gauss,
                           rc: 0.38,
                           lmax: 2}
    cutoffs: {filter: 2.14,
              core: 0.86}
    projectors:
      #              energy  rcut
      - 3s(2.00)   -85.387   1.275
      - 4s(2.00)    -5.282   1.275
      - 3p(6.00)   -54.493   1.281
      - 4p(0.00)    -1.471   1.281
      - 3d(5.00)    -7.009   1.138
      -  d          20.203   1.138
  
    # Using partial waves for Mn as LCAO basis

  Te:
    name: Tellurium
    id: fe52195436feef209ec398cc66414a6e
    Z: 52.0
    valence: 6
    core: 46
    charge: 0.0
    file: /zhome/ae/1/229651/venv/lib/python3.11/site-packages/gpaw_data/setups/Te.LDA.gz
    compensation charges: {type: gauss,
                           rc: 0.36,
                           lmax: 2}
    cutoffs: {filter: 2.09,
              core: 3.17}
    projectors:
      #              energy  rcut
      - 5s(2.00)   -15.337   1.180
      - 5p(4.00)    -6.113   1.196
      -  s          11.875   1.180
      -  p          21.098   1.196
      -  d           0.000   1.238
  
    # Using partial waves for Te as LCAO basis

Reference energy: -1202191.392782  # eV

eigensolver:
  {'converge_bands': 'occupied', 'name': 'PPCG', 'niter': 2}
Density mixing:
  Method: sum
  Backend: pulay
  Linear mixing parameter: 0.05
  old densities: 5
  Damping of long wavelength oscillations: 100
occupation numbers:
  Fermi-Dirac:
    width: 0.0100  # eV
  

<gpaw.new.pw.paw_poisson.SlowPAWPoissonSolver object at 0x7f4a93824a90>
xc functional:
  name: None

convergence criteria:
- Maximum [total energy] change in last 3 cyles: 0.0005 eV / valence electron
- Maximum integral of absolute [dens]ity change: 0.0001 electrons / valence electron
- Maximum integral of absolute [eigenst]ate change: 4e-08 eV^2 / valence electron
maximum number of iterations: 100

     iter     time        total  log10-change:
                         energy   eigst   dens
iter:   1 19:35:46   -60.250979   +0.57          +0.0,+0.0,+0.0
iter:   2 19:43:59   -56.955936   -0.45  -1.06   +0.0,-0.0,+0.0
iter:   3 19:52:15   -56.739464   -1.07  -1.31   -0.0,-0.0,+0.0
iter:   4 20:00:30   -56.619970   -1.27  -1.42   -0.0,+0.0,+0.0
iter:   5 20:08:47   -56.725091   -1.43  -1.65   +0.0,-0.0,+0.0
iter:   6 20:17:07   -56.675647   -1.80  -1.88   +0.0,+0.0,-0.0
iter:   7 20:25:25   -56.621829   -2.15  -2.19   +0.0,-0.0,+0.0
iter:   8 20:33:42   -56.624588   -2.95  -2.46   +0.0,-0.0,+0.0
iter:   9 20:41:54   -56.628858c  -3.01  -2.52   +0.0,-0.0,-0.0
iter:  10 20:50:08   -56.628225c  -3.46  -2.94   +0.0,-0.0,-0.0
iter:  11 20:58:27   -56.628141c  -3.74  -3.23   +0.0,-0.0,-0.0
iter:  12 21:06:42   -56.628283c  -3.93  -3.22   +0.0,-0.0,-0.0
iter:  13 21:14:59   -56.628384c  -4.15  -3.12   +0.0,-0.0,-0.0
iter:  14 21:23:15   -56.628878c  -4.11  -3.24   +0.0,-0.0,-0.0
iter:  15 21:31:31   -56.628756c  -4.45  -3.48   +0.0,-0.0,-0.0
iter:  16 21:39:45   -56.628805c  -4.75  -3.90   +0.0,-0.0,-0.0
iter:  17 21:48:00   -56.628828c  -4.94  -4.08c  +0.0,-0.0,-0.0
iter:  18 21:56:15   -56.628832c  -5.16  -4.10c  +0.0,-0.0,-0.0
iter:  19 22:04:32   -56.628870c  -5.33  -4.13c  +0.0,-0.0,-0.0
iter:  20 22:12:46   -56.628895c  -5.53  -4.30c  +0.0,-0.0,-0.0
iter:  21 22:21:01   -56.628907c  -5.72  -4.39c  +0.0,-0.0,-0.0
iter:  22 22:29:20   -56.628922c  -5.89  -4.44c  +0.0,-0.0,-0.0
iter:  23 22:37:36   -56.628923c  -6.12  -4.54c  +0.0,-0.0,-0.0
iter:  24 22:45:53   -56.628926c  -6.30  -4.57c  +0.0,-0.0,-0.0
iter:  25 22:54:09   -56.628927c  -6.49  -4.61c  +0.0,-0.0,-0.0
iter:  26 23:02:26   -56.628932c  -6.65  -4.66c  +0.0,-0.0,-0.0
iter:  27 23:10:44   -56.628940c  -6.49  -4.71c  +0.0,-0.0,-0.0
iter:  28 23:19:01   -56.628940c  -7.01  -4.86c  +0.0,-0.0,-0.0
iter:  29 23:27:17   -56.628941c  -7.13  -4.89c  +0.0,-0.0,-0.0
iter:  30 23:35:32   -56.628941c  -7.40  -5.01c  +0.0,-0.0,-0.0
iter:  31 23:43:48   -56.628941c  -7.49c -5.20c  +0.0,-0.0,-0.0
Converged in 31 steps
Energy contributions relative to reference atoms: (reference = -1202191.392782)

kinetic:          50.116718
coulomb:         -47.479103
zero:              1.226918
external:          0.000000
xc:              -58.459270
entropy:          -0.000050
spinorbit:        -2.034179
----------------------------
Free energy:     -56.628966
Extrapolated:    -56.628941

dipole moment: [-0.000000, -68.680226, -0.001575]  # |e|*Ang

total magnetic moment: [0.000000, -0.000131, -0.000000]

local magnetic moments: [
  [ 0.000000,  2.607155,  0.000000],  # Mn 0
  [ 0.000001,  0.000001, -0.001064],  # Te 1
  [ 0.000001,  0.000001,  0.001064],  # Te 2
  [-2.257838, -1.303647, -0.000000],  # Mn 3
  [ 0.000000,  0.000004,  0.002210],  # Te 4
  [ 0.000000,  0.000004, -0.002210],  # Te 5
  [ 2.257838, -1.303647, -0.000000],  # Mn 6
  [-0.000001,  0.000001, -0.001064],  # Te 7
  [-0.000001,  0.000001,  0.001064]]  # Te 8


Fermi level: -0.327

kpt = [-0.417, -0.417, 0.000], weight = 0.007:
  Band      eig [eV]   occ [0-1]
     0       -80.539       1.000
   ...
    73        -1.800       1.000
    74        -1.799       1.000
    75        -1.667       1.000
    76        -1.663       1.000
    77        -1.517       1.000
    78        -1.262       1.000
    79        -1.242       1.000
    80        -1.116       1.000
    81        -0.172       0.000
    82        -0.171       0.000
    83        -0.119       0.000
    84        -0.054       0.000
    85        -0.038       0.000
    86         0.004       0.000
    87         0.016       0.000
    88         0.096       0.000
   ...
   105         3.971       0.000

kpt = [-0.417, -0.333, 0.000], weight = 0.007:
  Band      eig [eV]   occ [0-1]
     0       -80.539       1.000
   ...
    73        -1.852       1.000
    74        -1.844       1.000
    75        -1.695       1.000
    76        -1.589       1.000
    77        -1.500       1.000
    78        -1.182       1.000
    79        -1.105       1.000
    80        -1.074       1.000
    81        -0.199       0.000
    82        -0.148       0.000
    83        -0.128       0.000
    84        -0.062       0.000
    85         0.025       0.000
    86         0.048       0.000
    87         0.110       0.000
    88         0.160       0.000
   ...
   105         3.483       0.000

kpt = [-0.417, -0.250, 0.000], weight = 0.007:
  Band      eig [eV]   occ [0-1]
     0       -80.539       1.000
   ...
    73        -1.852       1.000
    74        -1.844       1.000
    75        -1.695       1.000
    76        -1.589       1.000
    77        -1.500       1.000
    78        -1.182       1.000
    79        -1.105       1.000
    80        -1.073       1.000
    81        -0.199       0.000
    82        -0.148       0.000
    83        -0.128       0.000
    84        -0.062       0.000
    85         0.025       0.000
    86         0.048       0.000
    87         0.110       0.000
    88         0.160       0.000
   ...
   105         3.483       0.000
(only showing first 3 out of 144 k-points)

Gap: 0.088 eV
Transition (v -> c):
  (s=0, k=65, n=80, [-0.00, -0.00, 0.00]) -> (s=0, k=65, n=81, [-0.00, -0.00, 0.00])
No difference between direct/indirect transitions
# Writing to MnTe2_oppositechiral_SOC__SCF_GS.gpw (mode='')


timing:  # [seconds]
  Total: 15488.676  # ━━━━━━━━━━━━━━━━━━━━━━━━━━━━━━━━━━━━━━━━━━━━━━━━━━━━━━━
  Init:    159.887  # ╸
  SCF:   15325.680  # ━━━━━━━━━━━━━━━━━━━━━━━━━━━━━━━━━━━━━━━━━━━━━━━━━━━━━━╸
