  ___ ___ ___ _ _ _
 |   |   |_  | | | |
 | | | | | . | | | |
 |__ |  _|___|_____| - 25.7.1b1
 |___|_|

User:   s260438@n-62-29-33
Date:   Sun May  3 20:59:56 2026
Arch:   x86_64
Pid:    291917
CWD:    /zhome/ae/1/229651/MnI2_spin_z_spiral_SOC
Python: 3.11.7
gpaw:   /zhome/ae/1/229651/venv/gpaw/gpaw (fd205d5876)
_gpaw:  /zhome/ae/1/229651/venv/gpaw/
        _gpaw.cpython-311-x86_64-linux-gnu.so (fd205d5876)
ase:    /zhome/ae/1/229651/venv/ase/ase (version 3.28.0b1-536df4049d)
numpy:  /zhome/ae/1/229651/venv/lib/python3.11/site-packages/numpy (version 2.4.2)
scipy:  /zhome/ae/1/229651/venv/lib/python3.11/site-packages/scipy (version 1.17.0)
libxc:  6.1.0
units:  Angstrom and eV
cores: 16
OpenMP: False
OMP_NUM_THREADS: 1

input parameters:
  mode=PW(ecut=600),
  kpts=MonkhorstPack(size=(12, 12, 1), gamma=True),
  magmoms=array([[ 8.27089763e-34,  4.50000000e+00, -1.35074009e-17],
         [ 0.00000000e+00,  0.00000000e+00,  0.00000000e+00],
         [ 0.00000000e+00,  0.00000000e+00,  0.00000000e+00],
         [ 2.38629429e-16, -2.25000000e+00, -3.89711432e+00],
         [ 0.00000000e+00,  0.00000000e+00,  0.00000000e+00],
         [ 0.00000000e+00,  0.00000000e+00,  0.00000000e+00],
         [-2.38629429e-16, -2.25000000e+00,  3.89711432e+00],
         [ 0.00000000e+00,  0.00000000e+00,  0.00000000e+00],
         [ 0.00000000e+00,  0.00000000e+00,  0.00000000e+00]]),
  maxiter=200,
  mixer=Mixer(backend='pulay', beta=0.05, method='sum', nmaxold=5, weight=100),
  occupations=Occupations(name='fermi-dirac', width=0.01, fixmagmom=False),
  parallel={'domain': 4, 'kpt': 4, 'band': 1},
  soc=True,
  spinpol=True,
  symmetry=Symmetry(point_group=False, time_reversal=False),
  xc=XC(name='LDA')

environment variables:
  GPAW_CPUPY=False,
  GPAW_DEBUG=False,
  GPAW_INITIALIZE_MPI=True,
  GPAW_MPI_BACKEND='cgpaw',
  GPAW_NEW=0,
  GPAW_NO_C_EXTENSION=False,
  GPAW_NO_GPU_MPI=False,
  GPAW_TRACE=False,
  GPAW_USE_GPUS=False

Diagonalizing LCAO Hamiltonian
Converting LCAO to pw mode
                                       
                                       
                                       
                                       
                    I                  
                                       
             IMn       IMn             
                                       
                 Mn                    
        I         I          I         
                                       
                                       
                                       
                                       
                                       

Atomic positions and initial magnetic moments

Positions:
   0 Mn    -0.000000    0.000000    9.013716    ( 0.0000,  4.5000, -0.0000)
   1 I      2.082858    1.202539   10.663250    ( 0.0000,  0.0000,  0.0000)
   2 I     -0.000000    2.405077    7.364181    ( 0.0000,  0.0000,  0.0000)
   3 Mn    -2.082858    3.607616    9.013716    ( 0.0000, -2.2500, -3.8971)
   4 I     -0.000000    4.810154   10.663250    ( 0.0000,  0.0000,  0.0000)
   5 I      4.165716    2.405077    7.364181    ( 0.0000,  0.0000,  0.0000)
   6 Mn     2.082858    3.607616    9.013716    (-0.0000, -2.2500,  3.8971)
   7 I     -2.082858    1.202539   10.663250    ( 0.0000,  0.0000,  0.0000)
   8 I     -4.165716    2.405077    7.364181    ( 0.0000,  0.0000,  0.0000)

Unit cell:
           periodic     x           y           z      points  spacing
  1. axis:    yes    6.248574    3.607616    0.000000    42     0.1488
  2. axis:    yes   -6.248574    3.607616    0.000000    42     0.1488
  3. axis:    yes    0.000000    0.000000   18.027431   105     0.1717

  Lengths:   7.215232   7.215232  18.027431
  Angles:   90.000000  90.000000 120.000000

Effective grid spacing dv^(1/3) = 0.1637

symmetry:
  number of symmetries: 1
  rotations: [
    [[ 1,  0,  0], [ 0,  1,  0], [ 0,  0,  1]]]

bz sampling:
  number of bz points: 144
  number of ibz points: 144
  monkhorst-pack size: [12, 12, 1]
  monkhorst-pack shift: [0.041666666666666664, 0.041666666666666664, 0.0]
  points and weights: [
    [[ -0.41666667,  -0.41666667,   0.00000000], 0.00694444],  # 0
    [[ -0.41666667,  -0.33333333,   0.00000000], 0.00694444],  # 1
    [[ -0.41666667,  -0.25000000,   0.00000000], 0.00694444],  # 2
    [[ -0.41666667,  -0.16666667,   0.00000000], 0.00694444],  # 3
    [[ -0.41666667,  -0.08333333,   0.00000000], 0.00694444],  # 4
    [[ -0.41666667,  -0.00000000,   0.00000000], 0.00694444],  # 5
    [[ -0.41666667,   0.08333333,   0.00000000], 0.00694444],  # 6
    [[ -0.41666667,   0.16666667,   0.00000000], 0.00694444],  # 7
    [[ -0.41666667,   0.25000000,   0.00000000], 0.00694444],  # 8
    [[ -0.41666667,   0.33333333,   0.00000000], 0.00694444],  # 9
    # ...
    [[  0.50000000,   0.50000000,   0.00000000], 0.00694444]]  # 143

plane wave coefficients: 27161
cutoff: 600.0 eV

spin-components: 4 (non-collinear spins)
bands: 114
projectors: 48
spin-degeneracy: 1
dtype: complex128

memory:
    storage: CPU
    wave functions: 14_207_588_352 bytes (887_974_272 per core)
    projectors: 3_614_211_072 bytes (225_888_192 per core)

parallelization:
    kpt:    4
    domain: 4
    band:   1

density:
  valence electrons: 87.0
  components: 4
  grid points: [ 42  42 105]
  charge: 0.0  # |e|

potential:
  grid points: [ 42  42 105]

species:
  Mn:
    name: Manganese
    id: 0d715a8018be061a6e9ea6f2d364ac92
    Z: 25.0
    valence: 15
    core: 10
    charge: 0.0
    file: /zhome/ae/1/229651/venv/lib/python3.11/site-packages/gpaw_data/setups/Mn.LDA.gz
    compensation charges: {type: gauss,
                           rc: 0.38,
                           lmax: 2}
    cutoffs: {filter: 2.14,
              core: 0.86}
    projectors:
      #              energy  rcut
      - 3s(2.00)   -85.387   1.275
      - 4s(2.00)    -5.282   1.275
      - 3p(6.00)   -54.493   1.281
      - 4p(0.00)    -1.471   1.281
      - 3d(5.00)    -7.009   1.138
      -  d          20.203   1.138
  
    # Using partial waves for Mn as LCAO basis

  I:
    name: Iodine
    id: b559721c0c096a7b4c8fc0e0f4de5cf4
    Z: 53.0
    valence: 7
    core: 46
    charge: 0.0
    file: /zhome/ae/1/229651/venv/lib/python3.11/site-packages/gpaw_data/setups/I.LDA.gz
    compensation charges: {type: gauss,
                           rc: 0.37,
                           lmax: 2}
    cutoffs: {filter: 2.06,
              core: 2.90}
    projectors:
      #              energy  rcut
      - 5s(2.00)   -17.626   1.164
      - 5p(5.00)    -7.241   1.164
      -  s           9.585   1.164
      -  p          19.970   1.164
      -  d           0.000   1.164
  
    # Using partial waves for I as LCAO basis

Reference energy: -1254667.327294  # eV

eigensolver:
  {'converge_bands': 'occupied', 'name': 'PPCG', 'niter': 2}
Density mixing:
  Method: sum
  Backend: pulay
  Linear mixing parameter: 0.05
  old densities: 5
  Damping of long wavelength oscillations: 100
occupation numbers:
  Fermi-Dirac:
    width: 0.0100  # eV
  

<gpaw.new.pw.paw_poisson.SlowPAWPoissonSolver object at 0x7fd33c3dad10>
xc functional:
  name: None

convergence criteria:
- Maximum [total energy] change in last 3 cyles: 0.0005 eV / valence electron
- Maximum integral of absolute [dens]ity change: 0.0001 electrons / valence electron
- Maximum integral of absolute [eigenst]ate change: 4e-08 eV^2 / valence electron
maximum number of iterations: 200

     iter     time        total  log10-change:
                         energy   eigst   dens
iter:   1 21:15:16   -46.972097   +0.39          +0.0,+0.0,-0.0
iter:   2 21:28:17   -46.929382   -0.74  -1.47   +0.0,-0.0,+0.0
iter:   3 21:41:19   -47.215792   -0.72  -1.52   -0.0,-0.0,+0.0
iter:   4 21:54:23   -47.398345   -1.54  -1.62   -0.0,+0.0,+0.0
iter:   5 22:07:24   -46.667696   -1.11  -1.62   -0.0,-0.0,-0.0
iter:   6 22:20:27   -46.691654   -1.83  -2.03   -0.0,-0.0,-0.0
iter:   7 22:33:31   -46.705538c  -2.42  -2.15   -0.0,-0.0,-0.0
iter:   8 22:46:38   -46.672048c  -2.23  -2.28   -0.0,-0.0,-0.0
iter:   9 22:59:48   -46.668609c  -2.17  -2.27   -0.0,-0.0,-0.0
iter:  10 23:12:55   -46.661402c  -2.99  -2.62   -0.0,-0.0,-0.0
iter:  11 23:25:54   -46.660737c  -3.07  -2.84   -0.0,-0.0,-0.0
iter:  12 23:38:53   -46.660729c  -3.82  -3.46   -0.0,-0.0,-0.0
iter:  13 23:51:55   -46.660785c  -4.06  -3.57   -0.0,-0.0,-0.0
iter:  14 00:04:52   -46.660802c  -4.27  -3.63   -0.0,-0.0,-0.0
iter:  15 00:17:49   -46.660813c  -4.48  -3.74   -0.0,-0.0,-0.0
iter:  16 00:30:46   -46.660829c  -4.67  -3.83   -0.0,-0.0,-0.0
iter:  17 00:43:46   -46.660837c  -4.84  -3.90   -0.0,-0.0,-0.0
iter:  18 00:56:52   -46.660836c  -5.07  -4.04c  -0.0,-0.0,-0.0
iter:  19 01:09:52   -46.660839c  -5.22  -4.10c  -0.0,-0.0,-0.0
iter:  20 01:22:56   -46.660839c  -5.45  -4.34c  -0.0,-0.0,-0.0
iter:  21 01:35:58   -46.660837c  -5.61  -4.46c  -0.0,-0.0,-0.0
iter:  22 01:48:57   -46.660837c  -5.81  -4.82c  -0.0,-0.0,-0.0
iter:  23 02:01:56   -46.660837c  -6.00  -4.89c  -0.0,-0.0,-0.0
iter:  24 02:14:56   -46.660837c  -6.17  -4.94c  -0.0,-0.0,-0.0
iter:  25 02:27:54   -46.660837c  -6.37  -5.21c  -0.0,-0.0,-0.0
iter:  26 02:40:56   -46.660837c  -6.54  -5.25c  -0.0,-0.0,-0.0
iter:  27 02:53:56   -46.660837c  -6.73  -5.36c  -0.0,-0.0,-0.0
iter:  28 03:06:53   -46.660837c  -6.90  -5.52c  -0.0,-0.0,-0.0
iter:  29 03:20:00   -46.660837c  -7.10  -5.64c  -0.0,-0.0,-0.0
iter:  30 03:32:55   -46.660837c  -7.27  -5.72c  -0.0,-0.0,-0.0
iter:  31 03:42:47   -46.660837c  -7.44c -5.73c  -0.0,-0.0,-0.0
Converged in 31 steps
Energy contributions relative to reference atoms: (reference = -1254667.327294)

kinetic:          57.839756
coulomb:         -50.398901
zero:              0.477823
external:          0.000000
xc:              -52.081348
entropy:          -0.000000
spinorbit:        -2.498166
----------------------------
Free energy:     -46.660837
Extrapolated:    -46.660837

dipole moment: [61.535510, 19.586435, 0.000480]  # |e|*Ang

total magnetic moment: [-0.000000, -0.000879, -0.000183]

local magnetic moments: [
  [-0.000000,  4.184265, -0.000103],  # Mn 0
  [-0.000306,  0.000503,  0.000253],  # I  1
  [-0.000556, -0.000065, -0.000525],  # I  2
  [ 0.000000, -2.092355, -3.623706],  # Mn 3
  [ 0.000556, -0.000065, -0.000525],  # I  4
  [ 0.000249, -0.000502,  0.000269],  # I  5
  [-0.000000, -2.092446,  3.623653],  # Mn 6
  [-0.000249, -0.000502,  0.000269],  # I  7
  [ 0.000306,  0.000503,  0.000253]]  # I  8


Fermi level: -1.402

kpt = [-0.417, -0.417, 0.000], weight = 0.007:
  Band      eig [eV]   occ [0-1]
     0       -82.721       1.000
   ...
    79        -3.559       1.000
    80        -3.440       1.000
    81        -2.890       1.000
    82        -2.789       1.000
    83        -2.672       1.000
    84        -2.548       1.000
    85        -2.500       1.000
    86        -2.359       1.000
    87        -1.070       0.000
    88        -1.057       0.000
    89        -0.983       0.000
    90        -0.947       0.000
    91        -0.860       0.000
    92        -0.850       0.000
    93        -0.733       0.000
    94        -0.712       0.000
   ...
   113         2.759       0.000

kpt = [-0.417, -0.333, 0.000], weight = 0.007:
  Band      eig [eV]   occ [0-1]
     0       -82.721       1.000
   ...
    79        -3.518       1.000
    80        -3.465       1.000
    81        -2.906       1.000
    82        -2.818       1.000
    83        -2.663       1.000
    84        -2.536       1.000
    85        -2.450       1.000
    86        -2.336       1.000
    87        -1.059       0.000
    88        -1.038       0.000
    89        -1.000       0.000
    90        -0.945       0.000
    91        -0.901       0.000
    92        -0.872       0.000
    93        -0.715       0.000
    94        -0.687       0.000
   ...
   113         2.635       0.000

kpt = [-0.417, -0.250, 0.000], weight = 0.007:
  Band      eig [eV]   occ [0-1]
     0       -82.721       1.000
   ...
    79        -3.511       1.000
    80        -3.488       1.000
    81        -2.899       1.000
    82        -2.828       1.000
    83        -2.660       1.000
    84        -2.555       1.000
    85        -2.426       1.000
    86        -2.341       1.000
    87        -1.058       0.000
    88        -1.041       0.000
    89        -0.997       0.000
    90        -0.946       0.000
    91        -0.901       0.000
    92        -0.872       0.000
    93        -0.714       0.000
    94        -0.689       0.000
   ...
   113         2.635       0.000
(only showing first 3 out of 144 k-points)

Gap: 1.251 eV
Transition (v -> c):
  (s=0, k=13, n=86, [-0.33, -0.33, 0.00]) -> (s=0, k=137, n=87, [0.50, -0.00, 0.00])
Direct/indirect transitions are different
Direct gap: 1.267 eV
Transition at: (s=0, k=13, n=86, [-0.33, -0.33, 0.00])
# Writing to MnI2_SOC_spinz__SCF_GS.gpw (mode='')


timing:  # [seconds]
  Total: 24174.918  # ━━━━━━━━━━━━━━━━━━━━━━━━━━━━━━━━━━━━━━━━━━━━━━━━━━━━━━━
  Init:    220.919  # ╸
  SCF:   23949.961  # ━━━━━━━━━━━━━━━━━━━━━━━━━━━━━━━━━━━━━━━━━━━━━━━━━━━━━━╸
