  ___ ___ ___ _ _ _
 |   |   |_  | | | |
 | | | | | . | | | |
 |__ |  _|___|_____| - 25.7.1b1
 |___|_|

User:   s260438@n-62-29-14
Date:   Thu Apr 23 19:37:13 2026
Arch:   x86_64
Pid:    1163258
CWD:    /zhome/ae/1/229651/project_run_2
Python: 3.11.7
gpaw:   /zhome/ae/1/229651/venv/gpaw/gpaw (fd205d5876)
_gpaw:  /zhome/ae/1/229651/venv/gpaw/
        _gpaw.cpython-311-x86_64-linux-gnu.so (fd205d5876)
ase:    /zhome/ae/1/229651/venv/ase/ase (version 3.28.0b1-536df4049d)
numpy:  /zhome/ae/1/229651/venv/lib/python3.11/site-packages/numpy (version 2.4.2)
scipy:  /zhome/ae/1/229651/venv/lib/python3.11/site-packages/scipy (version 1.17.0)
libxc:  6.1.0
units:  Angstrom and eV
cores: 16
OpenMP: False
OMP_NUM_THREADS: 1

input parameters:
  mode=PW(ecut=600),
  kpts=MonkhorstPack(size=(12, 12, 1), gamma=True),
  magmoms=array([[ 1.35074009e-17,  4.50000000e+00,  0.00000000e+00],
         [ 0.00000000e+00,  0.00000000e+00,  0.00000000e+00],
         [ 0.00000000e+00,  0.00000000e+00,  0.00000000e+00],
         [ 3.89711432e+00, -2.25000000e+00,  0.00000000e+00],
         [ 0.00000000e+00,  0.00000000e+00,  0.00000000e+00],
         [ 0.00000000e+00,  0.00000000e+00,  0.00000000e+00],
         [-3.89711432e+00, -2.25000000e+00,  0.00000000e+00],
         [ 0.00000000e+00,  0.00000000e+00,  0.00000000e+00],
         [ 0.00000000e+00,  0.00000000e+00,  0.00000000e+00]]),
  maxiter=100,
  mixer=Mixer(backend='pulay', beta=0.05, method='sum', nmaxold=5, weight=100),
  occupations=Occupations(name='fermi-dirac', width=0.01, fixmagmom=False),
  parallel={'domain': 4, 'kpt': 4, 'band': 1},
  soc=True,
  spinpol=True,
  symmetry=Symmetry(point_group=False, time_reversal=False),
  xc=XC(name='LDA')

environment variables:
  GPAW_CPUPY=False,
  GPAW_DEBUG=False,
  GPAW_INITIALIZE_MPI=True,
  GPAW_MPI_BACKEND='cgpaw',
  GPAW_NEW=0,
  GPAW_NO_C_EXTENSION=False,
  GPAW_NO_GPU_MPI=False,
  GPAW_TRACE=False,
  GPAW_USE_GPUS=False

Diagonalizing LCAO Hamiltonian
Converting LCAO to pw mode
                                       
                                       
                                       
                                       
                    I                  
                                       
             IMn       IMn             
                                       
                 Mn                    
        I         I          I         
                                       
                                       
                                       
                                       
                                       

Atomic positions and initial magnetic moments

Positions:
   0 Mn    -0.000000    0.000000    9.013716    ( 0.0000,  4.5000,  0.0000)
   1 I      2.082858    1.202539   10.663250    ( 0.0000,  0.0000,  0.0000)
   2 I     -0.000000    2.405077    7.364181    ( 0.0000,  0.0000,  0.0000)
   3 Mn    -2.082858    3.607616    9.013716    ( 3.8971, -2.2500,  0.0000)
   4 I     -0.000000    4.810154   10.663250    ( 0.0000,  0.0000,  0.0000)
   5 I      4.165716    2.405077    7.364181    ( 0.0000,  0.0000,  0.0000)
   6 Mn     2.082858    3.607616    9.013716    (-3.8971, -2.2500,  0.0000)
   7 I     -2.082858    1.202539   10.663250    ( 0.0000,  0.0000,  0.0000)
   8 I     -4.165716    2.405077    7.364181    ( 0.0000,  0.0000,  0.0000)

Unit cell:
           periodic     x           y           z      points  spacing
  1. axis:    yes    6.248574    3.607616    0.000000    42     0.1488
  2. axis:    yes   -6.248574    3.607616    0.000000    42     0.1488
  3. axis:    yes    0.000000    0.000000   18.027431   105     0.1717

  Lengths:   7.215232   7.215232  18.027431
  Angles:   90.000000  90.000000 120.000000

Effective grid spacing dv^(1/3) = 0.1637

symmetry:
  number of symmetries: 1
  rotations: [
    [[ 1,  0,  0], [ 0,  1,  0], [ 0,  0,  1]]]

bz sampling:
  number of bz points: 144
  number of ibz points: 144
  monkhorst-pack size: [12, 12, 1]
  monkhorst-pack shift: [0.041666666666666664, 0.041666666666666664, 0.0]
  points and weights: [
    [[ -0.41666667,  -0.41666667,   0.00000000], 0.00694444],  # 0
    [[ -0.41666667,  -0.33333333,   0.00000000], 0.00694444],  # 1
    [[ -0.41666667,  -0.25000000,   0.00000000], 0.00694444],  # 2
    [[ -0.41666667,  -0.16666667,   0.00000000], 0.00694444],  # 3
    [[ -0.41666667,  -0.08333333,   0.00000000], 0.00694444],  # 4
    [[ -0.41666667,  -0.00000000,   0.00000000], 0.00694444],  # 5
    [[ -0.41666667,   0.08333333,   0.00000000], 0.00694444],  # 6
    [[ -0.41666667,   0.16666667,   0.00000000], 0.00694444],  # 7
    [[ -0.41666667,   0.25000000,   0.00000000], 0.00694444],  # 8
    [[ -0.41666667,   0.33333333,   0.00000000], 0.00694444],  # 9
    # ...
    [[  0.50000000,   0.50000000,   0.00000000], 0.00694444]]  # 143

plane wave coefficients: 27161
cutoff: 600.0 eV

spin-components: 4 (non-collinear spins)
bands: 114
projectors: 48
spin-degeneracy: 1
dtype: complex128

memory:
    storage: CPU
    wave functions: 14_207_588_352 bytes (887_974_272 per core)
    projectors: 3_614_211_072 bytes (225_888_192 per core)

parallelization:
    kpt:    4
    domain: 4
    band:   1

density:
  valence electrons: 87.0
  components: 4
  grid points: [ 42  42 105]
  charge: 0.0  # |e|

potential:
  grid points: [ 42  42 105]

species:
  Mn:
    name: Manganese
    id: 0d715a8018be061a6e9ea6f2d364ac92
    Z: 25.0
    valence: 15
    core: 10
    charge: 0.0
    file: /zhome/ae/1/229651/venv/lib/python3.11/site-packages/gpaw_data/setups/Mn.LDA.gz
    compensation charges: {type: gauss,
                           rc: 0.38,
                           lmax: 2}
    cutoffs: {filter: 2.14,
              core: 0.86}
    projectors:
      #              energy  rcut
      - 3s(2.00)   -85.387   1.275
      - 4s(2.00)    -5.282   1.275
      - 3p(6.00)   -54.493   1.281
      - 4p(0.00)    -1.471   1.281
      - 3d(5.00)    -7.009   1.138
      -  d          20.203   1.138
  
    # Using partial waves for Mn as LCAO basis

  I:
    name: Iodine
    id: b559721c0c096a7b4c8fc0e0f4de5cf4
    Z: 53.0
    valence: 7
    core: 46
    charge: 0.0
    file: /zhome/ae/1/229651/venv/lib/python3.11/site-packages/gpaw_data/setups/I.LDA.gz
    compensation charges: {type: gauss,
                           rc: 0.37,
                           lmax: 2}
    cutoffs: {filter: 2.06,
              core: 2.90}
    projectors:
      #              energy  rcut
      - 5s(2.00)   -17.626   1.164
      - 5p(5.00)    -7.241   1.164
      -  s           9.585   1.164
      -  p          19.970   1.164
      -  d           0.000   1.164
  
    # Using partial waves for I as LCAO basis

Reference energy: -1254667.327294  # eV

eigensolver:
  {'converge_bands': 'occupied', 'name': 'PPCG', 'niter': 2}
Density mixing:
  Method: sum
  Backend: pulay
  Linear mixing parameter: 0.05
  old densities: 5
  Damping of long wavelength oscillations: 100
occupation numbers:
  Fermi-Dirac:
    width: 0.0100  # eV
  

<gpaw.new.pw.paw_poisson.SlowPAWPoissonSolver object at 0x7fa9be2f9c50>
xc functional:
  name: None

convergence criteria:
- Maximum [total energy] change in last 3 cyles: 0.0005 eV / valence electron
- Maximum integral of absolute [dens]ity change: 0.0001 electrons / valence electron
- Maximum integral of absolute [eigenst]ate change: 4e-08 eV^2 / valence electron
maximum number of iterations: 100

     iter     time        total  log10-change:
                         energy   eigst   dens
iter:   1 19:51:12   -46.972575   +0.39          -0.0,+0.0,+0.0
iter:   2 20:02:56   -46.930112   -0.74  -1.47   -0.0,-0.0,-0.0
iter:   3 20:14:35   -47.211803   -0.72  -1.52   -0.0,+0.0,+0.0
iter:   4 20:26:12   -47.393903   -1.54  -1.62   -0.0,+0.0,-0.0
iter:   5 20:37:54   -46.666692   -1.11  -1.62   -0.0,+0.0,-0.0
iter:   6 20:49:30   -46.691948   -1.84  -2.03   -0.0,+0.0,-0.0
iter:   7 21:01:05   -46.705505c  -2.42  -2.15   -0.0,+0.0,-0.0
iter:   8 21:12:42   -46.671726c  -2.25  -2.28   -0.0,+0.0,-0.0
iter:   9 21:24:24   -46.669042c  -2.18  -2.27   -0.0,+0.0,-0.0
iter:  10 21:36:14   -46.661889c  -2.99  -2.61   -0.0,+0.0,-0.0
iter:  11 21:48:00   -46.661235c  -3.08  -2.84   -0.0,+0.0,-0.0
iter:  12 21:59:41   -46.661232c  -3.82  -3.47   -0.0,+0.0,-0.0
iter:  13 22:11:25   -46.661294c  -4.07  -3.57   -0.0,+0.0,-0.0
iter:  14 22:23:06   -46.661322c  -4.26  -3.65   -0.0,+0.0,-0.0
iter:  15 22:34:47   -46.661327c  -4.50  -3.86   -0.0,+0.0,-0.0
iter:  16 22:46:29   -46.661339c  -4.65  -3.94   -0.0,+0.0,-0.0
iter:  17 22:58:12   -46.661338c  -4.88  -4.12c  -0.0,+0.0,-0.0
iter:  18 23:09:56   -46.661338c  -5.07  -4.25c  -0.0,+0.0,-0.0
iter:  19 23:21:36   -46.661338c  -5.25  -4.43c  -0.0,+0.0,-0.0
iter:  20 23:33:18   -46.661339c  -5.45  -4.70c  -0.0,+0.0,-0.0
iter:  21 23:44:58   -46.661339c  -5.65  -4.84c  -0.0,+0.0,-0.0
iter:  22 23:56:40   -46.661339c  -5.82  -4.94c  -0.0,+0.0,-0.0
iter:  23 00:08:25   -46.661339c  -6.03  -5.11c  -0.0,+0.0,-0.0
iter:  24 00:20:04   -46.661339c  -6.20  -5.16c  -0.0,+0.0,-0.0
iter:  25 00:31:46   -46.661339c  -6.41  -5.23c  -0.0,+0.0,-0.0
iter:  26 00:43:37   -46.661339c  -6.58  -5.34c  -0.0,+0.0,-0.0
iter:  27 00:55:26   -46.661339c  -6.76  -5.38c  -0.0,+0.0,-0.0
iter:  28 01:07:08   -46.661339c  -6.95  -5.65c  -0.0,+0.0,-0.0
iter:  29 01:18:45   -46.661339c  -7.14  -5.69c  -0.0,+0.0,-0.0
iter:  30 01:30:22   -46.661339c  -7.31  -5.72c  -0.0,+0.0,-0.0
iter:  31 01:37:59   -46.661339c  -7.46c -5.80c  -0.0,+0.0,-0.0
Converged in 31 steps
Energy contributions relative to reference atoms: (reference = -1254667.327294)

kinetic:          57.832456
coulomb:         -50.392119
zero:              0.478099
external:          0.000000
xc:              -52.080737
entropy:          -0.000000
spinorbit:        -2.499037
----------------------------
Free energy:     -46.661339
Extrapolated:    -46.661339

dipole moment: [61.536215, 19.586222, -0.001679]  # |e|*Ang

total magnetic moment: [-0.000000, 0.001278, -0.000161]

local magnetic moments: [
  [-0.000000,  4.184358, -0.000035],  # Mn 0
  [-0.000062,  0.000043, -0.000001],  # I  1
  [-0.000000,  0.000007, -0.001064],  # I  2
  [ 3.624066, -2.091637, -0.000052],  # Mn 3
  [-0.000000, -0.000065, -0.000001],  # I  4
  [-0.000000,  0.000007,  0.000530],  # I  5
  [-3.624066, -2.091637, -0.000052],  # Mn 6
  [ 0.000062,  0.000043, -0.000001],  # I  7
  [ 0.000000,  0.000007,  0.000530]]  # I  8


Fermi level: -1.394

kpt = [-0.417, -0.417, 0.000], weight = 0.007:
  Band      eig [eV]   occ [0-1]
     0       -82.720       1.000
   ...
    79        -3.550       1.000
    80        -3.499       1.000
    81        -2.881       1.000
    82        -2.735       1.000
    83        -2.665       1.000
    84        -2.588       1.000
    85        -2.494       1.000
    86        -2.370       1.000
    87        -1.067       0.000
    88        -1.059       0.000
    89        -0.979       0.000
    90        -0.950       0.000
    91        -0.857       0.000
    92        -0.852       0.000
    93        -0.729       0.000
    94        -0.716       0.000
   ...
   113         2.759       0.000

kpt = [-0.417, -0.333, 0.000], weight = 0.007:
  Band      eig [eV]   occ [0-1]
     0       -82.720       1.000
   ...
    79        -3.550       1.000
    80        -3.497       1.000
    81        -2.906       1.000
    82        -2.751       1.000
    83        -2.633       1.000
    84        -2.584       1.000
    85        -2.464       1.000
    86        -2.343       1.000
    87        -1.053       0.000
    88        -1.042       0.000
    89        -0.999       0.000
    90        -0.945       0.000
    91        -0.901       0.000
    92        -0.872       0.000
    93        -0.711       0.000
    94        -0.693       0.000
   ...
   113         2.635       0.000

kpt = [-0.417, -0.250, 0.000], weight = 0.007:
  Band      eig [eV]   occ [0-1]
     0       -82.720       1.000
   ...
    79        -3.551       1.000
    80        -3.495       1.000
    81        -2.907       1.000
    82        -2.749       1.000
    83        -2.638       1.000
    84        -2.580       1.000
    85        -2.464       1.000
    86        -2.343       1.000
    87        -1.054       0.000
    88        -1.042       0.000
    89        -0.999       0.000
    90        -0.945       0.000
    91        -0.901       0.000
    92        -0.872       0.000
    93        -0.711       0.000
    94        -0.693       0.000
   ...
   113         2.635       0.000
(only showing first 3 out of 144 k-points)

Gap: 1.255 eV
Transition (v -> c):
  (s=0, k=13, n=86, [-0.33, -0.33, 0.00]) -> (s=0, k=71, n=87, [-0.00, 0.50, 0.00])
Direct/indirect transitions are different
Direct gap: 1.279 eV
Transition at: (s=0, k=13, n=86, [-0.33, -0.33, 0.00])
# Writing to MnI2_SOC__SCF_GS.gpw (mode='all')


timing:  # [seconds]
  Total: 21815.674  # ━━━━━━━━━━━━━━━━━━━━━━━━━━━━━━━━━━━━━━━━━━━━━━━━━━━━━━━
  Init:    211.166  # ╸
  SCF:   21434.687  # ━━━━━━━━━━━━━━━━━━━━━━━━━━━━━━━━━━━━━━━━━━━━━━━━━━━━━━
