  ___ ___ ___ _ _ _
 |   |   |_  | | | |
 | | | | | . | | | |
 |__ |  _|___|_____| - 25.7.1b1
 |___|_|

User:   s260438@n-62-29-11
Date:   Fri May  1 23:32:13 2026
Arch:   x86_64
Pid:    106609
CWD:    /zhome/ae/1/229651/MnTe2_SOC
Python: 3.11.7
gpaw:   /zhome/ae/1/229651/venv/gpaw/gpaw (fd205d5876)
_gpaw:  /zhome/ae/1/229651/venv/gpaw/
        _gpaw.cpython-311-x86_64-linux-gnu.so (fd205d5876)
ase:    /zhome/ae/1/229651/venv/ase/ase (version 3.28.0b1-536df4049d)
numpy:  /zhome/ae/1/229651/venv/lib/python3.11/site-packages/numpy (version 2.4.2)
scipy:  /zhome/ae/1/229651/venv/lib/python3.11/site-packages/scipy (version 1.17.0)
libxc:  6.1.0
units:  Angstrom and eV
cores: 16
OpenMP: False
OMP_NUM_THREADS: 1

input parameters:
  mode=PW(ecut=600),
  kpts=MonkhorstPack(size=(12, 12, 1), gamma=True),
  magmoms=array([[ 0.        ,  2.8       ,  0.        ],
         [ 0.        ,  0.        ,  0.        ],
         [ 0.        ,  0.        ,  0.        ],
         [ 2.42487113, -1.4       ,  0.        ],
         [ 0.        ,  0.        ,  0.        ],
         [ 0.        ,  0.        ,  0.        ],
         [-2.42487113, -1.4       ,  0.        ],
         [ 0.        ,  0.        ,  0.        ],
         [ 0.        ,  0.        ,  0.        ]]),
  maxiter=100,
  mixer=Mixer(backend='pulay', beta=0.05, method='sum', nmaxold=5, weight=100),
  occupations=Occupations(name='fermi-dirac', width=0.01, fixmagmom=False),
  parallel={'domain': 4, 'kpt': 4, 'band': 1},
  soc=True,
  spinpol=True,
  symmetry=Symmetry(point_group=False, time_reversal=False),
  xc=XC(name='LDA')

environment variables:
  GPAW_CPUPY=False,
  GPAW_DEBUG=False,
  GPAW_INITIALIZE_MPI=True,
  GPAW_MPI_BACKEND='cgpaw',
  GPAW_NEW=0,
  GPAW_NO_C_EXTENSION=False,
  GPAW_NO_GPU_MPI=False,
  GPAW_TRACE=False,
  GPAW_USE_GPUS=False

Diagonalizing LCAO Hamiltonian
Converting LCAO to pw mode
                            
                            
                            
                            
              Te            
                            
        Ten      Ten        
                            
            MnTe            
                            
        Te       Te         
                            
                            
                            
                            

Atomic positions and initial magnetic moments

Positions:
   0 Mn     0.000000    0.000000    9.112691    ( 0.0000,  2.8000,  0.0000)
   1 Te     1.830032    1.056570   10.757277    ( 0.0000,  0.0000,  0.0000)
   2 Te     1.830032    1.056570    7.468106    ( 0.0000,  0.0000,  0.0000)
   3 Mn    -1.830032    3.169709    9.112691    ( 2.4249, -1.4000,  0.0000)
   4 Te    -0.000000    4.226279   10.757277    ( 0.0000,  0.0000,  0.0000)
   5 Te    -0.000000    4.226279    7.468106    ( 0.0000,  0.0000,  0.0000)
   6 Mn     1.830032    3.169709    9.112691    (-2.4249, -1.4000,  0.0000)
   7 Te    -1.830032    1.056570   10.757277    ( 0.0000,  0.0000,  0.0000)
   8 Te    -1.830032    1.056570    7.468106    ( 0.0000,  0.0000,  0.0000)

Unit cell:
           periodic     x           y           z      points  spacing
  1. axis:    yes    5.490097    3.169709    0.000000    36     0.1525
  2. axis:    yes   -5.490097    3.169709    0.000000    36     0.1525
  3. axis:    yes    0.000000    0.000000   18.225383   105     0.1736

  Lengths:   6.339419   6.339419  18.225383
  Angles:   90.000000  90.000000 120.000000

Effective grid spacing dv^(1/3) = 0.1670

symmetry:
  number of symmetries: 1
  rotations: [
    [[ 1,  0,  0], [ 0,  1,  0], [ 0,  0,  1]]]

bz sampling:
  number of bz points: 144
  number of ibz points: 144
  monkhorst-pack size: [12, 12, 1]
  monkhorst-pack shift: [0.041666666666666664, 0.041666666666666664, 0.0]
  points and weights: [
    [[ -0.41666667,  -0.41666667,   0.00000000], 0.00694444],  # 0
    [[ -0.41666667,  -0.33333333,   0.00000000], 0.00694444],  # 1
    [[ -0.41666667,  -0.25000000,   0.00000000], 0.00694444],  # 2
    [[ -0.41666667,  -0.16666667,   0.00000000], 0.00694444],  # 3
    [[ -0.41666667,  -0.08333333,   0.00000000], 0.00694444],  # 4
    [[ -0.41666667,  -0.00000000,   0.00000000], 0.00694444],  # 5
    [[ -0.41666667,   0.08333333,   0.00000000], 0.00694444],  # 6
    [[ -0.41666667,   0.16666667,   0.00000000], 0.00694444],  # 7
    [[ -0.41666667,   0.25000000,   0.00000000], 0.00694444],  # 8
    [[ -0.41666667,   0.33333333,   0.00000000], 0.00694444],  # 9
    # ...
    [[  0.50000000,   0.50000000,   0.00000000], 0.00694444]]  # 143

plane wave coefficients: 21229
cutoff: 600.0 eV

spin-components: 4 (non-collinear spins)
bands: 106
projectors: 48
spin-degeneracy: 1
dtype: complex128

memory:
    storage: CPU
    wave functions: 10_328_721_408 bytes (645_545_088 per core)
    projectors: 2_825_782_272 bytes (176_611_392 per core)

parallelization:
    kpt:    4
    domain: 4
    band:   1

density:
  valence electrons: 81.0
  components: 4
  grid points: [ 36  36 105]
  charge: 0.0  # |e|

potential:
  grid points: [ 36  36 105]

species:
  Mn:
    name: Manganese
    id: 0d715a8018be061a6e9ea6f2d364ac92
    Z: 25.0
    valence: 15
    core: 10
    charge: 0.0
    file: /zhome/ae/1/229651/venv/lib/python3.11/site-packages/gpaw_data/setups/Mn.LDA.gz
    compensation charges: {type: gauss,
                           rc: 0.38,
                           lmax: 2}
    cutoffs: {filter: 2.14,
              core: 0.86}
    projectors:
      #              energy  rcut
      - 3s(2.00)   -85.387   1.275
      - 4s(2.00)    -5.282   1.275
      - 3p(6.00)   -54.493   1.281
      - 4p(0.00)    -1.471   1.281
      - 3d(5.00)    -7.009   1.138
      -  d          20.203   1.138
  
    # Using partial waves for Mn as LCAO basis

  Te:
    name: Tellurium
    id: fe52195436feef209ec398cc66414a6e
    Z: 52.0
    valence: 6
    core: 46
    charge: 0.0
    file: /zhome/ae/1/229651/venv/lib/python3.11/site-packages/gpaw_data/setups/Te.LDA.gz
    compensation charges: {type: gauss,
                           rc: 0.36,
                           lmax: 2}
    cutoffs: {filter: 2.09,
              core: 3.17}
    projectors:
      #              energy  rcut
      - 5s(2.00)   -15.337   1.180
      - 5p(4.00)    -6.113   1.196
      -  s          11.875   1.180
      -  p          21.098   1.196
      -  d           0.000   1.238
  
    # Using partial waves for Te as LCAO basis

Reference energy: -1202191.392782  # eV

eigensolver:
  {'converge_bands': 'occupied', 'name': 'PPCG', 'niter': 2}
Density mixing:
  Method: sum
  Backend: pulay
  Linear mixing parameter: 0.05
  old densities: 5
  Damping of long wavelength oscillations: 100
occupation numbers:
  Fermi-Dirac:
    width: 0.0100  # eV
  

<gpaw.new.pw.paw_poisson.SlowPAWPoissonSolver object at 0x7f90566cd950>
xc functional:
  name: None

convergence criteria:
- Maximum [total energy] change in last 3 cyles: 0.0005 eV / valence electron
- Maximum integral of absolute [dens]ity change: 0.0001 electrons / valence electron
- Maximum integral of absolute [eigenst]ate change: 4e-08 eV^2 / valence electron
maximum number of iterations: 100

     iter     time        total  log10-change:
                         energy   eigst   dens
iter:   1 23:42:11   -60.187914   +0.56          -0.0,+0.0,+0.0
iter:   2 23:50:41   -56.914202   -0.46  -1.06   -0.0,-0.0,+0.0
iter:   3 23:58:57   -56.659106   -1.05  -1.30   -0.0,-0.0,-0.0
iter:   4 00:07:13   -56.534025   -1.31  -1.42   +0.0,+0.0,+0.0
iter:   5 00:15:48   -56.647545   -1.45  -1.65   +0.0,-0.0,+0.0
iter:   6 00:24:07   -56.595383   -1.89  -1.89   +0.0,+0.0,-0.0
iter:   7 00:32:21   -56.545475   -2.07  -2.09   -0.0,-0.0,-0.0
iter:   8 00:40:36   -56.545993   -2.94  -2.44   -0.0,-0.0,-0.0
iter:   9 00:48:51   -56.550813c  -3.16  -2.45   -0.0,-0.0,-0.0
iter:  10 00:57:06   -56.550300c  -3.15  -2.57   -0.0,-0.0,-0.0
iter:  11 01:05:20   -56.551407c  -3.62  -3.04   +0.0,+0.0,-0.0
iter:  12 01:13:38   -56.551683c  -3.85  -3.24   +0.0,+0.0,-0.0
iter:  13 01:21:55   -56.551830c  -4.09  -3.35   +0.0,+0.0,-0.0
iter:  14 01:30:08   -56.551934c  -4.32  -3.51   +0.0,+0.0,-0.0
iter:  15 01:38:22   -56.551996c  -4.50  -3.69   +0.0,+0.0,-0.0
iter:  16 01:46:39   -56.552070c  -4.72  -3.91   -0.0,+0.0,-0.0
iter:  17 01:54:54   -56.552101c  -4.92  -3.97   -0.0,+0.0,-0.0
iter:  18 02:03:14   -56.552173c  -5.08  -4.01c  -0.0,+0.0,-0.0
iter:  19 02:11:30   -56.552198c  -5.29  -4.17c  -0.0,+0.0,-0.0
iter:  20 02:19:44   -56.552218c  -5.46  -4.23c  -0.0,+0.0,-0.0
iter:  21 02:27:59   -56.552222c  -5.69  -4.53c  -0.0,+0.0,-0.0
iter:  22 02:36:13   -56.552229c  -5.87  -4.56c  -0.0,+0.0,-0.0
iter:  23 02:44:29   -56.552231c  -6.06  -4.67c  -0.0,+0.0,-0.0
iter:  24 02:52:45   -56.552234c  -6.22  -4.73c  -0.0,+0.0,-0.0
iter:  25 03:00:59   -56.552235c  -6.38  -4.94c  -0.0,+0.0,-0.0
iter:  26 03:09:15   -56.552235c  -6.62  -5.05c  -0.0,+0.0,-0.0
iter:  27 03:17:29   -56.552236c  -6.78  -5.15c  -0.0,+0.0,-0.0
iter:  28 03:25:44   -56.552235c  -7.00  -5.33c  -0.0,+0.0,-0.0
iter:  29 03:33:56   -56.552235c  -7.18  -5.52c  -0.0,+0.0,-0.0
iter:  30 03:42:11   -56.552235c  -7.36  -5.56c  -0.0,+0.0,-0.0
iter:  31 03:49:22   -56.552235c  -7.47c -5.61c  -0.0,+0.0,-0.0
Converged in 31 steps
Energy contributions relative to reference atoms: (reference = -1202191.392782)

kinetic:          50.005863
coulomb:         -47.375652
zero:              1.221085
external:          0.000000
xc:              -58.429472
entropy:          -0.001426
spinorbit:        -1.973346
----------------------------
Free energy:     -56.552948
Extrapolated:    -56.552235

dipole moment: [0.000000, -68.680854, -0.001575]  # |e|*Ang

total magnetic moment: [-0.000000, 0.000021, -0.000000]

local magnetic moments: [
  [-0.000000,  2.609696, -0.000000],  # Mn 0
  [-0.000334,  0.000192,  0.000005],  # Te 1
  [-0.000334,  0.000192, -0.000005],  # Te 2
  [ 2.260070, -1.304840, -0.000000],  # Mn 3
  [ 0.000000, -0.000384,  0.000006],  # Te 4
  [ 0.000000, -0.000384, -0.000006],  # Te 5
  [-2.260070, -1.304840, -0.000000],  # Mn 6
  [ 0.000334,  0.000192,  0.000005],  # Te 7
  [ 0.000334,  0.000192, -0.000005]]  # Te 8


Fermi level: -0.403

kpt = [-0.417, -0.417, 0.000], weight = 0.007:
  Band      eig [eV]   occ [0-1]
     0       -80.564       1.000
   ...
    73        -1.923       1.000
    74        -1.781       1.000
    75        -1.708       1.000
    76        -1.615       1.000
    77        -1.588       1.000
    78        -1.239       1.000
    79        -1.236       1.000
    80        -1.103       1.000
    81        -0.220       0.000
    82        -0.195       0.000
    83        -0.156       0.000
    84        -0.085       0.000
    85        -0.057       0.000
    86        -0.000       0.000
    87         0.018       0.000
    88         0.067       0.000
   ...
   105         3.980       0.000

kpt = [-0.417, -0.333, 0.000], weight = 0.007:
  Band      eig [eV]   occ [0-1]
     0       -80.564       1.000
   ...
    73        -1.931       1.000
    74        -1.859       1.000
    75        -1.692       1.000
    76        -1.624       1.000
    77        -1.559       1.000
    78        -1.179       1.000
    79        -1.088       1.000
    80        -1.058       1.000
    81        -0.222       0.000
    82        -0.182       0.000
    83        -0.165       0.000
    84        -0.062       0.000
    85         0.000       0.000
    86         0.039       0.000
    87         0.117       0.000
    88         0.144       0.000
   ...
   105         3.448       0.000

kpt = [-0.417, -0.250, 0.000], weight = 0.007:
  Band      eig [eV]   occ [0-1]
     0       -80.564       1.000
   ...
    73        -1.931       1.000
    74        -1.859       1.000
    75        -1.692       1.000
    76        -1.624       1.000
    77        -1.559       1.000
    78        -1.179       1.000
    79        -1.088       1.000
    80        -1.058       1.000
    81        -0.222       0.000
    82        -0.182       0.000
    83        -0.164       0.000
    84        -0.062       0.000
    85         0.000       0.000
    86         0.039       0.000
    87         0.117       0.000
    88         0.144       0.000
   ...
   105         3.448       0.000
(only showing first 3 out of 144 k-points)

No gap
No difference between direct/indirect transitions
# Writing to MnTe2_SOC__SCF_GS.gpw (mode='')


timing:  # [seconds]
  Total: 15431.280  # ━━━━━━━━━━━━━━━━━━━━━━━━━━━━━━━━━━━━━━━━━━━━━━━━━━━━━━━
  Init:    158.282  # ╸
  SCF:   15271.066  # ━━━━━━━━━━━━━━━━━━━━━━━━━━━━━━━━━━━━━━━━━━━━━━━━━━━━━━╸
