  ___ ___ ___ _ _ _
 |   |   |_  | | | |
 | | | | | . | | | |
 |__ |  _|___|_____| - 25.7.1b1
 |___|_|

User:   s260438@n-62-28-34
Date:   Fri May  1 17:10:16 2026
Arch:   x86_64
Pid:    116816
CWD:    /zhome/ae/1/229651/MnTe2_GS
Python: 3.11.7
gpaw:   /zhome/ae/1/229651/venv/gpaw/gpaw (fd205d5876)
_gpaw:  /zhome/ae/1/229651/venv/gpaw/
        _gpaw.cpython-311-x86_64-linux-gnu.so (fd205d5876)
ase:    /zhome/ae/1/229651/venv/ase/ase (version 3.28.0b1-536df4049d)
numpy:  /zhome/ae/1/229651/venv/lib/python3.11/site-packages/numpy (version 2.4.2)
scipy:  /zhome/ae/1/229651/venv/lib/python3.11/site-packages/scipy (version 1.17.0)
libxc:  6.1.0
units:  Angstrom and eV
cores: 16
OpenMP: False
OMP_NUM_THREADS: 1

input parameters:
  mode=PW(ecut=600),
  kpts=MonkhorstPack(size=(12, 12, 1), gamma=True),
  magmoms=array([[ 0.        ,  2.8       ,  0.        ],
         [ 0.        ,  0.        ,  0.        ],
         [ 0.        ,  0.        ,  0.        ],
         [ 2.42487113, -1.4       ,  0.        ],
         [ 0.        ,  0.        ,  0.        ],
         [ 0.        ,  0.        ,  0.        ],
         [-2.42487113, -1.4       ,  0.        ],
         [ 0.        ,  0.        ,  0.        ],
         [ 0.        ,  0.        ,  0.        ]]),
  maxiter=100,
  mixer=Mixer(backend='pulay', beta=0.05, method='sum', nmaxold=5, weight=100),
  occupations=Occupations(name='fermi-dirac', width=0.01, fixmagmom=False),
  parallel={'domain': 4, 'kpt': 4, 'band': 1},
  soc=False,
  spinpol=True,
  symmetry=Symmetry(point_group=False, time_reversal=False),
  xc=XC(name='LDA')

environment variables:
  GPAW_CPUPY=False,
  GPAW_DEBUG=False,
  GPAW_INITIALIZE_MPI=True,
  GPAW_MPI_BACKEND='cgpaw',
  GPAW_NEW=0,
  GPAW_NO_C_EXTENSION=False,
  GPAW_NO_GPU_MPI=False,
  GPAW_TRACE=False,
  GPAW_USE_GPUS=False

Diagonalizing LCAO Hamiltonian
Converting LCAO to pw mode
                            
                            
                            
                            
              Te            
                            
        Ten      Ten        
                            
            MnTe            
                            
        Te       Te         
                            
                            
                            
                            

Atomic positions and initial magnetic moments

Positions:
   0 Mn     0.000000    0.000000    9.112691    ( 0.0000,  2.8000,  0.0000)
   1 Te     1.830032    1.056570   10.757277    ( 0.0000,  0.0000,  0.0000)
   2 Te     1.830032    1.056570    7.468106    ( 0.0000,  0.0000,  0.0000)
   3 Mn    -1.830032    3.169709    9.112691    ( 2.4249, -1.4000,  0.0000)
   4 Te    -0.000000    4.226279   10.757277    ( 0.0000,  0.0000,  0.0000)
   5 Te    -0.000000    4.226279    7.468106    ( 0.0000,  0.0000,  0.0000)
   6 Mn     1.830032    3.169709    9.112691    (-2.4249, -1.4000,  0.0000)
   7 Te    -1.830032    1.056570   10.757277    ( 0.0000,  0.0000,  0.0000)
   8 Te    -1.830032    1.056570    7.468106    ( 0.0000,  0.0000,  0.0000)

Unit cell:
           periodic     x           y           z      points  spacing
  1. axis:    yes    5.490097    3.169709    0.000000    36     0.1525
  2. axis:    yes   -5.490097    3.169709    0.000000    36     0.1525
  3. axis:    yes    0.000000    0.000000   18.225383   105     0.1736

  Lengths:   6.339419   6.339419  18.225383
  Angles:   90.000000  90.000000 120.000000

Effective grid spacing dv^(1/3) = 0.1670

symmetry:
  number of symmetries: 1
  rotations: [
    [[ 1,  0,  0], [ 0,  1,  0], [ 0,  0,  1]]]

bz sampling:
  number of bz points: 144
  number of ibz points: 144
  monkhorst-pack size: [12, 12, 1]
  monkhorst-pack shift: [0.041666666666666664, 0.041666666666666664, 0.0]
  points and weights: [
    [[ -0.41666667,  -0.41666667,   0.00000000], 0.00694444],  # 0
    [[ -0.41666667,  -0.33333333,   0.00000000], 0.00694444],  # 1
    [[ -0.41666667,  -0.25000000,   0.00000000], 0.00694444],  # 2
    [[ -0.41666667,  -0.16666667,   0.00000000], 0.00694444],  # 3
    [[ -0.41666667,  -0.08333333,   0.00000000], 0.00694444],  # 4
    [[ -0.41666667,  -0.00000000,   0.00000000], 0.00694444],  # 5
    [[ -0.41666667,   0.08333333,   0.00000000], 0.00694444],  # 6
    [[ -0.41666667,   0.16666667,   0.00000000], 0.00694444],  # 7
    [[ -0.41666667,   0.25000000,   0.00000000], 0.00694444],  # 8
    [[ -0.41666667,   0.33333333,   0.00000000], 0.00694444],  # 9
    # ...
    [[  0.50000000,   0.50000000,   0.00000000], 0.00694444]]  # 143

plane wave coefficients: 21229
cutoff: 600.0 eV

spin-components: 4 (non-collinear spins)
bands: 106
projectors: 48
spin-degeneracy: 1
dtype: complex128

memory:
    storage: CPU
    wave functions: 10_328_721_408 bytes (645_545_088 per core)
    projectors: 2_825_782_272 bytes (176_611_392 per core)

parallelization:
    kpt:    4
    domain: 4
    band:   1

density:
  valence electrons: 81.0
  components: 4
  grid points: [ 36  36 105]
  charge: 0.0  # |e|

potential:
  grid points: [ 36  36 105]

species:
  Mn:
    name: Manganese
    id: 0d715a8018be061a6e9ea6f2d364ac92
    Z: 25.0
    valence: 15
    core: 10
    charge: 0.0
    file: /zhome/ae/1/229651/venv/lib/python3.11/site-packages/gpaw_data/setups/Mn.LDA.gz
    compensation charges: {type: gauss,
                           rc: 0.38,
                           lmax: 2}
    cutoffs: {filter: 2.14,
              core: 0.86}
    projectors:
      #              energy  rcut
      - 3s(2.00)   -85.387   1.275
      - 4s(2.00)    -5.282   1.275
      - 3p(6.00)   -54.493   1.281
      - 4p(0.00)    -1.471   1.281
      - 3d(5.00)    -7.009   1.138
      -  d          20.203   1.138
  
    # Using partial waves for Mn as LCAO basis

  Te:
    name: Tellurium
    id: fe52195436feef209ec398cc66414a6e
    Z: 52.0
    valence: 6
    core: 46
    charge: 0.0
    file: /zhome/ae/1/229651/venv/lib/python3.11/site-packages/gpaw_data/setups/Te.LDA.gz
    compensation charges: {type: gauss,
                           rc: 0.36,
                           lmax: 2}
    cutoffs: {filter: 2.09,
              core: 3.17}
    projectors:
      #              energy  rcut
      - 5s(2.00)   -15.337   1.180
      - 5p(4.00)    -6.113   1.196
      -  s          11.875   1.180
      -  p          21.098   1.196
      -  d           0.000   1.238
  
    # Using partial waves for Te as LCAO basis

Reference energy: -1202191.392782  # eV

eigensolver:
  {'converge_bands': 'occupied', 'name': 'PPCG', 'niter': 2}
Density mixing:
  Method: sum
  Backend: pulay
  Linear mixing parameter: 0.05
  old densities: 5
  Damping of long wavelength oscillations: 100
occupation numbers:
  Fermi-Dirac:
    width: 0.0100  # eV
  

<gpaw.new.pw.paw_poisson.SlowPAWPoissonSolver object at 0x7fb156c52110>
xc functional:
  name: None

convergence criteria:
- Maximum [total energy] change in last 3 cyles: 0.0005 eV / valence electron
- Maximum integral of absolute [dens]ity change: 0.0001 electrons / valence electron
- Maximum integral of absolute [eigenst]ate change: 4e-08 eV^2 / valence electron
maximum number of iterations: 100

     iter     time        total  log10-change:
                         energy   eigst   dens
iter:   1 17:20:15   -59.272852   +0.49          -0.0,+0.0,+0.0
iter:   2 17:28:26   -55.934470   -0.55  -1.05   -0.0,-0.0,+0.0
iter:   3 17:36:39   -55.721202   -1.15  -1.30   +0.0,-0.0,+0.0
iter:   4 17:44:51   -55.598718   -1.29  -1.41   -0.0,+0.0,-0.0
iter:   5 17:53:03   -55.733209   -1.40  -1.64   +0.0,-0.0,-0.0
iter:   6 18:01:14   -55.669045   -1.85  -1.85   -0.0,+0.0,+0.0
iter:   7 18:09:24   -55.595148   -2.04  -2.12   +0.0,-0.0,+0.0
iter:   8 18:17:36   -55.597401   -2.95  -2.44   +0.0,+0.0,+0.0
iter:   9 18:25:48   -55.602925c  -3.04  -2.47   +0.0,+0.0,+0.0
iter:  10 18:34:01   -55.601138c  -3.20  -2.76   +0.0,-0.0,+0.0
iter:  11 18:42:14   -55.601479c  -3.83  -3.07   +0.0,+0.0,+0.0
iter:  12 18:50:26   -55.601744c  -4.07  -3.13   +0.0,+0.0,+0.0
iter:  13 18:58:37   -55.601872c  -4.29  -3.26   +0.0,-0.0,+0.0
iter:  14 19:06:46   -55.601756c  -4.52  -3.30   +0.0,-0.0,+0.0
iter:  15 19:14:56   -55.601946c  -4.72  -3.28   +0.0,-0.0,+0.0
iter:  16 19:23:07   -55.602207c  -4.68  -3.32   +0.0,-0.0,+0.0
iter:  17 19:31:17   -55.602118c  -4.80  -3.51   +0.0,-0.0,+0.0
iter:  18 19:39:27   -55.602145c  -5.24  -3.83   +0.0,-0.0,+0.0
iter:  19 19:47:37   -55.602175c  -5.53  -3.90   +0.0,-0.0,+0.0
iter:  20 19:55:47   -55.602205c  -5.69  -3.91   +0.0,-0.0,+0.0
iter:  21 20:03:58   -55.602222c  -5.91  -4.00c  +0.0,-0.0,+0.0
iter:  22 20:12:11   -55.602291c  -5.65  -4.04c  +0.0,-0.0,+0.0
iter:  23 20:20:21   -55.602293c  -6.24  -4.52c  +0.0,-0.0,+0.0
iter:  24 20:28:32   -55.602303c  -6.34  -4.58c  +0.0,-0.0,+0.0
iter:  25 20:36:44   -55.602303c  -6.68  -4.71c  +0.0,-0.0,+0.0
iter:  26 20:44:59   -55.602303c  -6.91  -5.03c  +0.0,-0.0,+0.0
iter:  27 20:53:12   -55.602304c  -7.09  -5.02c  +0.0,-0.0,+0.0
iter:  28 21:01:22   -55.602304c  -7.29  -5.05c  +0.0,-0.0,+0.0
iter:  29 21:07:35   -55.602305c  -7.43c -5.03c  +0.0,-0.0,+0.0
Converged in 29 steps
Energy contributions relative to reference atoms: (reference = -1202191.392782)

kinetic:          34.744115
coulomb:         -33.993375
zero:              1.105151
external:          0.000000
xc:              -57.457874
entropy:          -0.000645
spinorbit:         0.000000
----------------------------
Free energy:     -55.602627
Extrapolated:    -55.602305

dipole moment: [-0.000000, -68.666522, -0.001575]  # |e|*Ang

total magnetic moment: [0.000001, -0.000033, 0.000000]

local magnetic moments: [
  [ 0.000005,  2.596376, -0.000000],  # Mn 0
  [-0.000001,  0.000000, -0.000000],  # Te 1
  [-0.000001,  0.000000, -0.000000],  # Te 2
  [ 2.248532, -1.298213,  0.000001],  # Mn 3
  [-0.000000,  0.000003, -0.000000],  # Te 4
  [-0.000000,  0.000003, -0.000000],  # Te 5
  [-2.248536, -1.298207,  0.000001],  # Mn 6
  [ 0.000001,  0.000000, -0.000000],  # Te 7
  [ 0.000001,  0.000000, -0.000000]]  # Te 8


Fermi level: -0.367

kpt = [-0.417, -0.417, 0.000], weight = 0.007:
  Band      eig [eV]   occ [0-1]
     0       -80.575       1.000
   ...
    73        -1.822       1.000
    74        -1.790       1.000
    75        -1.781       1.000
    76        -1.781       1.000
    77        -1.701       1.000
    78        -1.287       1.000
    79        -1.287       1.000
    80        -1.159       1.000
    81        -0.200       0.000
    82        -0.200       0.000
    83        -0.145       0.000
    84        -0.047       0.000
    85        -0.047       0.000
    86        -0.009       0.000
    87        -0.007       0.000
    88        -0.007       0.000
   ...
   105         3.967       0.000

kpt = [-0.417, -0.333, 0.000], weight = 0.007:
  Band      eig [eV]   occ [0-1]
     0       -80.575       1.000
   ...
    73        -1.851       1.000
    74        -1.849       1.000
    75        -1.837       1.000
    76        -1.701       1.000
    77        -1.654       1.000
    78        -1.219       1.000
    79        -1.134       1.000
    80        -1.107       1.000
    81        -0.228       0.000
    82        -0.178       0.000
    83        -0.157       0.000
    84        -0.069       0.000
    85         0.035       0.000
    86         0.045       0.000
    87         0.051       0.000
    88         0.132       0.000
   ...
   105         3.452       0.000

kpt = [-0.417, -0.250, 0.000], weight = 0.007:
  Band      eig [eV]   occ [0-1]
     0       -80.575       1.000
   ...
    73        -1.851       1.000
    74        -1.849       1.000
    75        -1.837       1.000
    76        -1.701       1.000
    77        -1.654       1.000
    78        -1.219       1.000
    79        -1.134       1.000
    80        -1.107       1.000
    81        -0.228       0.000
    82        -0.178       0.000
    83        -0.157       0.000
    84        -0.069       0.000
    85         0.035       0.000
    86         0.045       0.000
    87         0.051       0.000
    88         0.132       0.000
   ...
   105         3.452       0.000
(only showing first 3 out of 144 k-points)

No gap
No difference between direct/indirect transitions
# Writing to MnTe2_spinz__SCF_GS.gpw (mode='')


timing:  # [seconds]
  Total: 14241.750  # ━━━━━━━━━━━━━━━━━━━━━━━━━━━━━━━━━━━━━━━━━━━━━━━━━━━━━━━
  Init:    158.915  # ╸
  SCF:   14079.607  # ━━━━━━━━━━━━━━━━━━━━━━━━━━━━━━━━━━━━━━━━━━━━━━━━━━━━━━╸
